41
Properties=species:S:1:pos:R:3:is_solvent:L:1:group_label:I:1:tags:I:1 Coordinates=T from=T ORCA-job=T Li1EC4_r06_charge_1_spin_1_liquid_t_traj_4_frame_0000=T E=T -1378.044762743038=T solvent_indices_0based="_JSON [31, 32, 33, 34, 35, 36, 37, 38, 39, 40]" complex_indices_0based="_JSON [0, 1, 2, 3, 4, 5, 6, 7, 8, 9, 10, 11, 12, 13, 14, 15, 16, 17, 18, 19, 20, 21, 22, 23, 24, 25, 26, 27, 28, 29, 30]" complex_indices_1based="_JSON [1, 2, 3, 4, 5, 6, 7, 8, 9, 10, 11, 12, 13, 14, 15, 16, 17, 18, 19, 20, 21, 22, 23, 24, 25, 26, 27, 28, 29, 30, 31]" pbc="F F F"
Li       1.33725352       0.20141339      -0.97740479  F        0        1
C        4.73476286       1.51680177       1.83833425  F        0        1
C        5.26604322       2.70045049       1.03012410  F        0        1
O        4.47858640       2.64125488      -0.17351000  F        0        1
C        3.41667591       1.86253797       0.03292817  F        0        1
O        3.45516842       1.26783222       1.22699161  F        0        1
O        2.52696987       1.71959826      -0.76453343  F        0        1
H        5.34371090       0.61793243       1.73142578  F        0        1
H        4.57588122       1.74117741       2.89095130  F        0        1
H        5.08318246       3.66183805       1.51254896  F        0        1
H        6.31605577       2.61062130       0.75993499  F        0        1
C        1.41697365       1.32401921      -5.92268685  F        0        1
C        2.77313935       1.24808887      -5.22162709  F        0        1
O        2.44627391       0.61544202      -3.97065023  F        0        1
C        1.12940667       0.69950992      -3.76768773  F        0        1
O        0.48812737       1.18081617      -4.83187812  F        0        1
O        0.58211226       0.37488976      -2.74641991  F        0        1
H        1.22962243       2.27775086      -6.41142197  F        0        1
H        1.25120414       0.50365743      -6.62257050  F        0        1
H        3.50171951       0.62937212      -5.74120352  F        0        1
H        3.19743053       2.22998168      -5.00662266  F        0        1
C       -2.62152866       2.37905786       0.11379060  F        0        1
C       -3.30793517       1.18880768       0.78604751  F        0        1
O       -2.21062246       0.29508685       1.05280885  F        0        1
C       -1.15126384       0.67112350       0.33732262  F        0        1
O       -1.35502920       1.82905828      -0.29286340  F        0        1
O       -0.12910404       0.03892466       0.27323604  F        0        1
H       -3.14063877       2.73908443      -0.77199896  F        0        1
H       -2.43072112       3.20536400       0.79997892  F        0        1
H       -3.78758291       1.43564519       1.73082346  F        0        1
H       -4.01215536       0.67656075       0.12909827  F        0        1
C        0.83657044      -4.30265571      -0.19090282  T        1        2
C        2.27537624      -4.65379639       0.18678223  T        1        2
O        2.91755534      -3.36521646       0.21879711  T        1        2
C        2.15194465      -2.47623520      -0.41433271  T        1        2
O        0.97434087      -2.99313894      -0.77198462  T        1        2
O        2.48791985      -1.34308312      -0.63959706  T        1        2
H        0.40353354      -4.96711385      -0.93558254  T        1        2
H        0.17608472      -4.22438761       0.67400714  T        1        2
H        2.37096062      -5.11095175       1.16936083  T        1        2
H        2.77674299      -5.26699627      -0.56354367  T        1        2
41
Properties=species:S:1:pos:R:3:is_solvent:L:1:group_label:I:1:tags:I:1 Coordinates=T from=T ORCA-job=T Li1EC4_r06_charge_1_spin_1_liquid_t_traj_4_frame_0000=T E=T -1378.044762743038=T solvent_indices_0based="_JSON [31, 32, 33, 34, 35, 36, 37, 38, 39, 40]" complex_indices_0based="_JSON [0, 1, 2, 3, 4, 5, 6, 7, 8, 9, 10, 11, 12, 13, 14, 15, 16, 17, 18, 19, 20, 21, 22, 23, 24, 25, 26, 27, 28, 29, 30]" complex_indices_1based="_JSON [1, 2, 3, 4, 5, 6, 7, 8, 9, 10, 11, 12, 13, 14, 15, 16, 17, 18, 19, 20, 21, 22, 23, 24, 25, 26, 27, 28, 29, 30, 31]" pbc="F F F"
Li       1.33725400       0.20141300      -0.97740500  F        0        1
C        4.73476300       1.51680200       1.83833400  F        0        1
C        5.26604300       2.70045000       1.03012400  F        0        1
O        4.47858600       2.64125500      -0.17351000  F        0        1
C        3.41667600       1.86253800       0.03292800  F        0        1
O        3.45516800       1.26783200       1.22699200  F        0        1
O        2.52697000       1.71959800      -0.76453300  F        0        1
H        5.34371100       0.61793200       1.73142600  F        0        1
H        4.57588100       1.74117700       2.89095100  F        0        1
H        5.08318200       3.66183800       1.51254900  F        0        1
H        6.31605600       2.61062100       0.75993500  F        0        1
C        1.41697400       1.32401900      -5.92268700  F        0        1
C        2.77313900       1.24808900      -5.22162700  F        0        1
O        2.44627400       0.61544200      -3.97065000  F        0        1
C        1.12940700       0.69951000      -3.76768800  F        0        1
O        0.48812700       1.18081600      -4.83187800  F        0        1
O        0.58211200       0.37489000      -2.74642000  F        0        1
H        1.22962200       2.27775100      -6.41142200  F        0        1
H        1.25120400       0.50365700      -6.62257100  F        0        1
H        3.50172000       0.62937200      -5.74120400  F        0        1
H        3.19743100       2.22998200      -5.00662300  F        0        1
C       -2.62152900       2.37905800       0.11379100  F        0        1
C       -3.30793500       1.18880800       0.78604800  F        0        1
O       -2.21062200       0.29508700       1.05280900  F        0        1
C       -1.15126400       0.67112300       0.33732300  F        0        1
O       -1.35502900       1.82905800      -0.29286300  F        0        1
O       -0.12910400       0.03892500       0.27323600  F        0        1
H       -3.14063900       2.73908400      -0.77199900  F        0        1
H       -2.43072100       3.20536400       0.79997900  F        0        1
H       -3.78758300       1.43564500       1.73082300  F        0        1
H       -4.01215500       0.67656100       0.12909800  F        0        1
C        0.83657000      -4.30265600      -0.19090300  T        1        2
C        2.27537600      -4.65379600       0.18678200  T        1        2
O        2.91755500      -3.36521600       0.21879700  T        1        2
C        2.15194500      -2.47623500      -0.41433300  T        1        2
O        0.97434100      -2.99313900      -0.77198500  T        1        2
O        2.48792000      -1.34308300      -0.63959700  T        1        2
H        0.40353400      -4.96711400      -0.93558300  T        1        2
H        0.17608500      -4.22438800       0.67400700  T        1        2
H        2.37096100      -5.11095200       1.16936100  T        1        2
H        2.77674300      -5.26699600      -0.56354400  T        1        2
41
Properties=species:S:1:pos:R:3:is_solvent:L:1:group_label:I:1:tags:I:1 Coordinates=T from=T ORCA-job=T Li1EC4_r06_charge_1_spin_1_liquid_t_traj_4_frame_0001=T E=T -1378.037420313644=T solvent_indices_0based="_JSON [31, 32, 33, 34, 35, 36, 37, 38, 39, 40]" complex_indices_0based="_JSON [0, 1, 2, 3, 4, 5, 6, 7, 8, 9, 10, 11, 12, 13, 14, 15, 16, 17, 18, 19, 20, 21, 22, 23, 24, 25, 26, 27, 28, 29, 30]" complex_indices_1based="_JSON [1, 2, 3, 4, 5, 6, 7, 8, 9, 10, 11, 12, 13, 14, 15, 16, 17, 18, 19, 20, 21, 22, 23, 24, 25, 26, 27, 28, 29, 30, 31]" pbc="F F F"
Li       0.97584224       0.72072256      -0.64564441  F        0        1
C        5.37953727       2.03578239       1.00642051  F        0        1
C        4.80177600       3.18419605       1.83693724  F        0        1
O        3.46828314       3.32312451       1.31150522  F        0        1
C        3.16686115       2.25434968       0.57658695  F        0        1
O        4.20760629       1.43796334       0.42150867  F        0        1
O        2.07581247       2.05817263       0.10765027  F        0        1
H        6.02799470       2.37511425       0.19782194  F        0        1
H        5.88768187       1.28055964       1.60255570  F        0        1
H        4.72550236       2.94648636       2.89857837  F        0        1
H        5.32329643       4.12932245       1.70103683  F        0        1
C        2.34328337      -1.08688229      -5.14585240  F        0        1
C        3.49710249      -0.42776617      -4.37795389  F        0        1
O        2.85109374       0.13885242      -3.22685425  F        0        1
C        1.53134156      -0.00945767      -3.32467331  F        0        1
O        1.17371953      -0.64839750      -4.43514327  F        0        1
O        0.74595943       0.39905124      -2.50832187  F        0        1
H        2.26094562      -0.75150719      -6.17821230  F        0        1
H        2.37402160      -2.17574403      -5.10913537  F        0        1
H        4.24522307      -1.13939228      -4.03268051  F        0        1
H        3.97597151       0.37905413      -4.93260270  F        0        1
C       -2.89941801       3.00678544       0.54424437  F        0        1
C       -3.66759954       1.81782669       1.12319336  F        0        1
O       -2.65061781       0.80314622       1.23388020  F        0        1
C       -1.59366469       1.15772225       0.50821179  F        0        1
O       -1.71510941       2.38775676       0.00628793  F        0        1
O       -0.63763881       0.44836320       0.32573933  F        0        1
H       -3.42082136       3.51277194      -0.26546280  F        0        1
H       -2.59204401       3.72765348       1.30297119  F        0        1
H       -4.07742476       2.00140935       2.11405651  F        0        1
H       -4.44698694       1.44655734       0.45648807  F        0        1
C        1.29872814      -4.07163574      -2.16966681  T        1        2
C        1.59049076      -4.70400787      -0.81061945  T        1        2
O        1.73611576      -3.55968662       0.04579158  T        1        2
C        1.93077759      -2.46286701      -0.69361419  T        1        2
O        1.80980636      -2.73639221      -2.01252169  T        1        2
O        2.18420881      -1.38077189      -0.25501051  T        1        2
H        1.82360139      -4.55070098      -2.99419267  T        1        2
H        0.23135620      -4.00871129      -2.38848661  T        1        2
H        0.77581295      -5.31695725      -0.43059633  T        1        2
H        2.52461738      -5.26797222      -0.79398334  T        1        2
41
Properties=species:S:1:pos:R:3:is_solvent:L:1:group_label:I:1:tags:I:1 Coordinates=T from=T ORCA-job=T Li1EC4_r06_charge_1_spin_1_liquid_t_traj_4_frame_0001=T E=T -1378.037420313644=T solvent_indices_0based="_JSON [31, 32, 33, 34, 35, 36, 37, 38, 39, 40]" complex_indices_0based="_JSON [0, 1, 2, 3, 4, 5, 6, 7, 8, 9, 10, 11, 12, 13, 14, 15, 16, 17, 18, 19, 20, 21, 22, 23, 24, 25, 26, 27, 28, 29, 30]" complex_indices_1based="_JSON [1, 2, 3, 4, 5, 6, 7, 8, 9, 10, 11, 12, 13, 14, 15, 16, 17, 18, 19, 20, 21, 22, 23, 24, 25, 26, 27, 28, 29, 30, 31]" pbc="F F F"
Li       0.97584200       0.72072300      -0.64564400  F        0        1
C        5.37953700       2.03578200       1.00642100  F        0        1
C        4.80177600       3.18419600       1.83693700  F        0        1
O        3.46828300       3.32312500       1.31150500  F        0        1
C        3.16686100       2.25435000       0.57658700  F        0        1
O        4.20760600       1.43796300       0.42150900  F        0        1
O        2.07581200       2.05817300       0.10765000  F        0        1
H        6.02799500       2.37511400       0.19782200  F        0        1
H        5.88768200       1.28056000       1.60255600  F        0        1
H        4.72550200       2.94648600       2.89857800  F        0        1
H        5.32329600       4.12932200       1.70103700  F        0        1
C        2.34328300      -1.08688200      -5.14585200  F        0        1
C        3.49710200      -0.42776600      -4.37795400  F        0        1
O        2.85109400       0.13885200      -3.22685400  F        0        1
C        1.53134200      -0.00945800      -3.32467300  F        0        1
O        1.17372000      -0.64839800      -4.43514300  F        0        1
O        0.74595900       0.39905100      -2.50832200  F        0        1
H        2.26094600      -0.75150700      -6.17821200  F        0        1
H        2.37402200      -2.17574400      -5.10913500  F        0        1
H        4.24522300      -1.13939200      -4.03268100  F        0        1
H        3.97597200       0.37905400      -4.93260300  F        0        1
C       -2.89941800       3.00678500       0.54424400  F        0        1
C       -3.66760000       1.81782700       1.12319300  F        0        1
O       -2.65061800       0.80314600       1.23388000  F        0        1
C       -1.59366500       1.15772200       0.50821200  F        0        1
O       -1.71510900       2.38775700       0.00628800  F        0        1
O       -0.63763900       0.44836300       0.32573900  F        0        1
H       -3.42082100       3.51277200      -0.26546300  F        0        1
H       -2.59204400       3.72765300       1.30297100  F        0        1
H       -4.07742500       2.00140900       2.11405700  F        0        1
H       -4.44698700       1.44655700       0.45648800  F        0        1
C        1.29872800      -4.07163600      -2.16966700  T        1        2
C        1.59049100      -4.70400800      -0.81061900  T        1        2
O        1.73611600      -3.55968700       0.04579200  T        1        2
C        1.93077800      -2.46286700      -0.69361400  T        1        2
O        1.80980600      -2.73639200      -2.01252200  T        1        2
O        2.18420900      -1.38077200      -0.25501100  T        1        2
H        1.82360100      -4.55070100      -2.99419300  T        1        2
H        0.23135600      -4.00871100      -2.38848700  T        1        2
H        0.77581300      -5.31695700      -0.43059600  T        1        2
H        2.52461700      -5.26797200      -0.79398300  T        1        2
41
Properties=species:S:1:pos:R:3:is_solvent:L:1:group_label:I:1:tags:I:1 Coordinates=T from=T ORCA-job=T Li1EC4_r06_charge_1_spin_1_liquid_t_traj_4_frame_0002=T E=T -1378.034523452419=T solvent_indices_0based="_JSON [31, 32, 33, 34, 35, 36, 37, 38, 39, 40]" complex_indices_0based="_JSON [0, 1, 2, 3, 4, 5, 6, 7, 8, 9, 10, 11, 12, 13, 14, 15, 16, 17, 18, 19, 20, 21, 22, 23, 24, 25, 26, 27, 28, 29, 30]" complex_indices_1based="_JSON [1, 2, 3, 4, 5, 6, 7, 8, 9, 10, 11, 12, 13, 14, 15, 16, 17, 18, 19, 20, 21, 22, 23, 24, 25, 26, 27, 28, 29, 30, 31]" pbc="F F F"
Li       1.28752829       0.92591404      -0.64274971  F        0        1
C        5.60449253       1.66761680       2.15481379  F        0        1
C        4.76545244       2.69621818       2.91318772  F        0        1
O        3.57693923       2.79515055       2.10399789  F        0        1
C        3.52410238       1.75618917       1.27278706  F        0        1
O        4.62603968       1.00981794       1.32592758  F        0        1
O        2.58857500       1.52223133       0.55680851  F        0        1
H        6.35107606       2.12536001       1.50441965  F        0        1
H        6.06985789       0.92216422       2.79536815  F        0        1
H        4.47133792       2.35820852       3.90773631  F        0        1
H        5.22435952       3.68049199       2.97214156  F        0        1
C        0.45656068      -0.91515588      -4.82829430  F        0        1
C        1.88369675      -0.61905256      -5.29553830  F        0        1
O        2.40872127       0.19734238      -4.23403553  F        0        1
C        1.42223068       0.56671733      -3.42732738  F        0        1
O        0.24433714       0.07545615      -3.80670144  F        0        1
O        1.57549502       1.28714838      -2.47147534  F        0        1
H       -0.29579289      -0.77900615      -5.60245100  F        0        1
H        0.36215496      -1.89789292      -4.36638343  F        0        1
H        2.50262932      -1.51014699      -5.37852871  F        0        1
H        1.92454059      -0.04373070      -6.22123084  F        0        1
C       -2.70054363       3.22955729       0.21536620  F        0        1
C       -3.50846578       2.02968768       0.71296805  F        0        1
O       -2.49990991       1.01514522       0.88460712  F        0        1
C       -1.39435761       1.38142374       0.24300148  F        0        1
O       -1.47903518       2.61936477      -0.24550578  F        0        1
O       -0.42677442       0.67451328       0.11840988  F        0        1
H       -3.15937290       3.75178085      -0.62124536  F        0        1
H       -2.44955261       3.93574201       1.00785859  F        0        1
H       -3.99459439       2.19555132       1.67192240  F        0        1
H       -4.23200855       1.66801371      -0.01870778  F        0        1
C        2.53192723      -5.02559324      -2.18896747  T        1        2
C        3.09061283      -4.65405877      -0.81526181  T        1        2
O        2.54014195      -3.34612428      -0.58868253  T        1        2
C        2.10403677      -2.83709435      -1.74748576  T        1        2
O        2.15369900      -3.75006352      -2.73551575  T        1        2
O        1.71654851      -1.71524023      -1.89761071  T        1        2
H        3.26533189      -5.48242240      -2.85117988  T        1        2
H        1.64137561      -5.65364044      -2.12892658  T        1        2
H        2.75948974      -5.31468348      -0.01604260  T        1        2
H        4.17846039      -4.57523681      -0.80726941  T        1        2
41
Properties=species:S:1:pos:R:3:is_solvent:L:1:group_label:I:1:tags:I:1 Coordinates=T from=T ORCA-job=T Li1EC4_r06_charge_1_spin_1_liquid_t_traj_4_frame_0002=T E=T -1378.034523452419=T solvent_indices_0based="_JSON [31, 32, 33, 34, 35, 36, 37, 38, 39, 40]" complex_indices_0based="_JSON [0, 1, 2, 3, 4, 5, 6, 7, 8, 9, 10, 11, 12, 13, 14, 15, 16, 17, 18, 19, 20, 21, 22, 23, 24, 25, 26, 27, 28, 29, 30]" complex_indices_1based="_JSON [1, 2, 3, 4, 5, 6, 7, 8, 9, 10, 11, 12, 13, 14, 15, 16, 17, 18, 19, 20, 21, 22, 23, 24, 25, 26, 27, 28, 29, 30, 31]" pbc="F F F"
Li       1.28752800       0.92591400      -0.64275000  F        0        1
C        5.60449300       1.66761700       2.15481400  F        0        1
C        4.76545200       2.69621800       2.91318800  F        0        1
O        3.57693900       2.79515100       2.10399800  F        0        1
C        3.52410200       1.75618900       1.27278700  F        0        1
O        4.62604000       1.00981800       1.32592800  F        0        1
O        2.58857500       1.52223100       0.55680900  F        0        1
H        6.35107600       2.12536000       1.50442000  F        0        1
H        6.06985800       0.92216400       2.79536800  F        0        1
H        4.47133800       2.35820900       3.90773600  F        0        1
H        5.22436000       3.68049200       2.97214200  F        0        1
C        0.45656100      -0.91515600      -4.82829400  F        0        1
C        1.88369700      -0.61905300      -5.29553800  F        0        1
O        2.40872100       0.19734200      -4.23403600  F        0        1
C        1.42223100       0.56671700      -3.42732700  F        0        1
O        0.24433700       0.07545600      -3.80670100  F        0        1
O        1.57549500       1.28714800      -2.47147500  F        0        1
H       -0.29579300      -0.77900600      -5.60245100  F        0        1
H        0.36215500      -1.89789300      -4.36638300  F        0        1
H        2.50262900      -1.51014700      -5.37852900  F        0        1
H        1.92454100      -0.04373100      -6.22123100  F        0        1
C       -2.70054400       3.22955700       0.21536600  F        0        1
C       -3.50846600       2.02968800       0.71296800  F        0        1
O       -2.49991000       1.01514500       0.88460700  F        0        1
C       -1.39435800       1.38142400       0.24300100  F        0        1
O       -1.47903500       2.61936500      -0.24550600  F        0        1
O       -0.42677400       0.67451300       0.11841000  F        0        1
H       -3.15937300       3.75178100      -0.62124500  F        0        1
H       -2.44955300       3.93574200       1.00785900  F        0        1
H       -3.99459400       2.19555100       1.67192200  F        0        1
H       -4.23200900       1.66801400      -0.01870800  F        0        1
C        2.53192700      -5.02559300      -2.18896700  T        1        2
C        3.09061300      -4.65405900      -0.81526200  T        1        2
O        2.54014200      -3.34612400      -0.58868300  T        1        2
C        2.10403700      -2.83709400      -1.74748600  T        1        2
O        2.15369900      -3.75006400      -2.73551600  T        1        2
O        1.71654900      -1.71524000      -1.89761100  T        1        2
H        3.26533200      -5.48242200      -2.85118000  T        1        2
H        1.64137600      -5.65364000      -2.12892700  T        1        2
H        2.75949000      -5.31468300      -0.01604300  T        1        2
H        4.17846000      -4.57523700      -0.80726900  T        1        2
41
Properties=species:S:1:pos:R:3:is_solvent:L:1:group_label:I:1:tags:I:1 Coordinates=T from=T ORCA-job=T Li1EC4_r06_charge_1_spin_1_liquid_t_traj_4_frame_0003=T E=T -1378.033562291645=T solvent_indices_0based="_JSON [31, 32, 33, 34, 35, 36, 37, 38, 39, 40]" complex_indices_0based="_JSON [0, 1, 2, 3, 4, 5, 6, 7, 8, 9, 10, 11, 12, 13, 14, 15, 16, 17, 18, 19, 20, 21, 22, 23, 24, 25, 26, 27, 28, 29, 30]" complex_indices_1based="_JSON [1, 2, 3, 4, 5, 6, 7, 8, 9, 10, 11, 12, 13, 14, 15, 16, 17, 18, 19, 20, 21, 22, 23, 24, 25, 26, 27, 28, 29, 30, 31]" pbc="F F F"
Li       1.62886804       0.99610506      -0.47654987  F        0        1
C        5.77882169       2.41587581       2.35787394  F        0        1
C        4.66263928       3.44712856       2.54513233  F        0        1
O        3.70610032       3.07296885       1.53357693  F        0        1
C        4.00435059       1.86071979       1.06857587  F        0        1
O        5.14333159       1.39269923       1.56743538  F        0        1
O        3.32404940       1.25708817       0.27912217  F        0        1
H        6.62920321       2.80178356       1.79461944  F        0        1
H        6.11928701       1.96638066       3.28797758  F        0        1
H        4.17346066       3.37761690       3.51734708  F        0        1
H        4.97782063       4.47106206       2.35575341  F        0        1
C        1.26309521      -0.94044173      -5.05953918  F        0        1
C        2.74155209      -0.72165971      -4.70588346  F        0        1
O        2.68986548       0.17895457      -3.58773378  F        0        1
C        1.42809664       0.38456002      -3.23430233  F        0        1
O        0.56244924      -0.16005431      -4.07597555  F        0        1
O        1.09878220       1.02918403      -2.26604779  F        0        1
H        0.99244557      -0.56552262      -6.04587367  F        0        1
H        0.95520264      -1.97864999      -4.94930423  F        0        1
H        3.23444849      -1.63652676      -4.38166347  F        0        1
H        3.31200551      -0.24293929      -5.50069724  F        0        1
C       -2.73922872       2.73340297       0.39675698  F        0        1
C       -3.20096189       1.44249675       1.07697346  F        0        1
O       -1.95942927       0.78360157       1.39435971  F        0        1
C       -0.96997391       1.35804067       0.71780279  F        0        1
O       -1.36884453       2.44527200       0.06032374  F        0        1
O        0.16171802       0.94345081       0.70866573  F        0        1
H       -3.27707645       2.96092443      -0.52133848  F        0        1
H       -2.75218899       3.59633413       1.06351040  F        0        1
H       -3.74798137       1.60708734       2.00288873  F        0        1
H       -3.77100488       0.78986675       0.41458585  F        0        1
C        1.62962475      -5.45988389      -2.63518434  T        1        2
C        1.87696213      -5.39071729      -1.12949546  T        1        2
O        1.64055633      -4.00429109      -0.83217980  T        1        2
C        1.69992756      -3.28978082      -1.96346816  T        1        2
O        1.79040364      -4.09037979      -3.04406523  T        1        2
O        1.67732029      -2.09570631      -2.01868869  T        1        2
H        2.35456856      -6.07090694      -3.16930839  T        1        2
H        0.61597364      -5.77862889      -2.88499206  T        1        2
H        1.18640450      -5.99493912      -0.54416452  T        1        2
H        2.90699617      -5.63014202      -0.85865399  T        1        2
41
Properties=species:S:1:pos:R:3:is_solvent:L:1:group_label:I:1:tags:I:1 Coordinates=T from=T ORCA-job=T Li1EC4_r06_charge_1_spin_1_liquid_t_traj_4_frame_0003=T E=T -1378.033562291645=T solvent_indices_0based="_JSON [31, 32, 33, 34, 35, 36, 37, 38, 39, 40]" complex_indices_0based="_JSON [0, 1, 2, 3, 4, 5, 6, 7, 8, 9, 10, 11, 12, 13, 14, 15, 16, 17, 18, 19, 20, 21, 22, 23, 24, 25, 26, 27, 28, 29, 30]" complex_indices_1based="_JSON [1, 2, 3, 4, 5, 6, 7, 8, 9, 10, 11, 12, 13, 14, 15, 16, 17, 18, 19, 20, 21, 22, 23, 24, 25, 26, 27, 28, 29, 30, 31]" pbc="F F F"
Li       1.62886800       0.99610500      -0.47655000  F        0        1
C        5.77882200       2.41587600       2.35787400  F        0        1
C        4.66263900       3.44712900       2.54513200  F        0        1
O        3.70610000       3.07296900       1.53357700  F        0        1
C        4.00435100       1.86072000       1.06857600  F        0        1
O        5.14333200       1.39269900       1.56743500  F        0        1
O        3.32404900       1.25708800       0.27912200  F        0        1
H        6.62920300       2.80178400       1.79461900  F        0        1
H        6.11928700       1.96638100       3.28797800  F        0        1
H        4.17346100       3.37761700       3.51734700  F        0        1
H        4.97782100       4.47106200       2.35575300  F        0        1
C        1.26309500      -0.94044200      -5.05953900  F        0        1
C        2.74155200      -0.72166000      -4.70588300  F        0        1
O        2.68986500       0.17895500      -3.58773400  F        0        1
C        1.42809700       0.38456000      -3.23430200  F        0        1
O        0.56244900      -0.16005400      -4.07597600  F        0        1
O        1.09878200       1.02918400      -2.26604800  F        0        1
H        0.99244600      -0.56552300      -6.04587400  F        0        1
H        0.95520300      -1.97865000      -4.94930400  F        0        1
H        3.23444800      -1.63652700      -4.38166300  F        0        1
H        3.31200600      -0.24293900      -5.50069700  F        0        1
C       -2.73922900       2.73340300       0.39675700  F        0        1
C       -3.20096200       1.44249700       1.07697300  F        0        1
O       -1.95942900       0.78360200       1.39436000  F        0        1
C       -0.96997400       1.35804100       0.71780300  F        0        1
O       -1.36884500       2.44527200       0.06032400  F        0        1
O        0.16171800       0.94345100       0.70866600  F        0        1
H       -3.27707600       2.96092400      -0.52133800  F        0        1
H       -2.75218900       3.59633400       1.06351000  F        0        1
H       -3.74798100       1.60708700       2.00288900  F        0        1
H       -3.77100500       0.78986700       0.41458600  F        0        1
C        1.62962500      -5.45988400      -2.63518400  T        1        2
C        1.87696200      -5.39071700      -1.12949500  T        1        2
O        1.64055600      -4.00429100      -0.83218000  T        1        2
C        1.69992800      -3.28978100      -1.96346800  T        1        2
O        1.79040400      -4.09038000      -3.04406500  T        1        2
O        1.67732000      -2.09570600      -2.01868900  T        1        2
H        2.35456900      -6.07090700      -3.16930800  T        1        2
H        0.61597400      -5.77862900      -2.88499200  T        1        2
H        1.18640400      -5.99493900      -0.54416500  T        1        2
H        2.90699600      -5.63014200      -0.85865400  T        1        2
41
Properties=species:S:1:pos:R:3:is_solvent:L:1:group_label:I:1:tags:I:1 Coordinates=T from=T ORCA-job=T Li1EC4_r06_charge_1_spin_1_liquid_t_traj_4_frame_0004=T E=T -1378.033025442701=T solvent_indices_0based="_JSON [31, 32, 33, 34, 35, 36, 37, 38, 39, 40]" complex_indices_0based="_JSON [0, 1, 2, 3, 4, 5, 6, 7, 8, 9, 10, 11, 12, 13, 14, 15, 16, 17, 18, 19, 20, 21, 22, 23, 24, 25, 26, 27, 28, 29, 30]" complex_indices_1based="_JSON [1, 2, 3, 4, 5, 6, 7, 8, 9, 10, 11, 12, 13, 14, 15, 16, 17, 18, 19, 20, 21, 22, 23, 24, 25, 26, 27, 28, 29, 30, 31]" pbc="F F F"
Li       0.62068587       1.13183029      -0.64101792  F        0        1
C        5.54445414       1.36088333       0.79181242  F        0        1
C        5.24060926       2.81101832       1.17282809  F        0        1
O        3.87526983       2.97563333       0.74519099  F        0        1