41
Properties=species:S:1:pos:R:3:is_solvent:L:1:group_label:I:1:tags:I:1 Coordinates=T from=T ORCA-job=T Li1EC4_r01_charge_1_spin_1_liquid_t_traj_2_frame_0000=T E=T -1378.044628388050=T solvent_indices_0based="_JSON [11, 12, 13, 14, 15, 16, 17, 18, 19, 20]" complex_indices_0based="_JSON [0, 1, 2, 3, 4, 5, 6, 7, 8, 9, 10, 21, 22, 23, 24, 25, 26, 27, 28, 29, 30, 31, 32, 33, 34, 35, 36, 37, 38, 39, 40]" complex_indices_1based="_JSON [1, 2, 3, 4, 5, 6, 7, 8, 9, 10, 11, 22, 23, 24, 25, 26, 27, 28, 29, 30, 31, 32, 33, 34, 35, 36, 37, 38, 39, 40, 41]" pbc="F F F"
Li       0.03833651      -0.06103456      -0.03135960  F        0        1
C        4.07732740       0.84785958      -2.23896429  F        0        1
C        3.74320200       2.29598695      -2.60308065  F        0        1
O        2.65825387       2.60954280      -1.71113646  F        0        1
C        2.17110075       1.48228242      -1.19240700  F        0        1
O        2.90473592       0.41855665      -1.52345097  F        0        1
O        1.18695533       1.43545402      -0.50217522  F        0        1
H        4.20996503       0.19896600      -3.10223106  F        0        1
H        4.93574307       0.76271003      -1.57116481  F        0        1
H        4.55751785       2.99237303      -2.41363375  F        0        1
H        3.38608727       2.40705481      -3.62778331  F        0        1
C       -3.38583131       3.60900620       0.72733358  T        1        2
C       -2.66585706       3.61580337      -0.62112896  T        1        2
O       -2.05831222       2.31140140      -0.66054995  T        1        2
C       -2.03664435       1.79955749       0.57132852  T        1        2
O       -2.71804726       2.54961917       1.43788189  T        1        2
O       -1.47421941       0.77839016       0.86923920  T        1        2
H       -3.26702468       4.53076595       1.29289589  T        1        2
H       -4.44322215       3.35274906       0.64529845  T        1        2
H       -3.33393552       3.71083577      -1.47452580  T        1        2
H       -1.87291715       4.36296426      -0.67832655  T        1        2
C       -2.21788891      -3.80407769      -1.68541419  F        0        1
C       -1.35628530      -3.98852257      -2.93615960  F        0        1
O       -0.69386667      -2.71700293      -3.06024635  F        0        1
C       -0.81395799      -2.04178726      -1.91735326  F        0        1
O       -1.62266034      -2.65664222      -1.05277872  F        0        1
O       -0.25940826      -0.99682022      -1.69785213  F        0        1
H       -3.25789708      -3.56743490      -1.91466174  F        0        1
H       -2.16970034      -4.64211680      -0.99312403  F        0        1
H       -0.59473625      -4.76085000      -2.82007171  F        0        1
H       -1.93339706      -4.16624915      -3.84131614  F        0        1
C        0.80593187      -0.42467481       4.50496403  F        0        1
C        1.01673017      -1.93641372       4.58287813  F        0        1
O        0.72031045      -2.36690851       3.24110430  F        0        1
C        0.74565932      -1.31265448       2.42587756  F        0        1
O        0.90021867      -0.16675072       3.09187060  F        0        1
O        0.64581620      -1.38963391       1.22927489  F        0        1
H       -0.18361254      -0.11335855       4.84300896  F        0        1
H        1.57549756       0.15238613       5.01325416  F        0        1
H        2.04767453      -2.21188373       4.81058366  F        0        1
H        0.33519713      -2.44063173       5.26465007  F        0        1
41
Properties=species:S:1:pos:R:3:is_solvent:L:1:group_label:I:1:tags:I:1 Coordinates=T from=T ORCA-job=T Li1EC4_r01_charge_1_spin_1_liquid_t_traj_2_frame_0000=T E=T -1378.044628388050=T solvent_indices_0based="_JSON [11, 12, 13, 14, 15, 16, 17, 18, 19, 20]" complex_indices_0based="_JSON [0, 1, 2, 3, 4, 5, 6, 7, 8, 9, 10, 21, 22, 23, 24, 25, 26, 27, 28, 29, 30, 31, 32, 33, 34, 35, 36, 37, 38, 39, 40]" complex_indices_1based="_JSON [1, 2, 3, 4, 5, 6, 7, 8, 9, 10, 11, 22, 23, 24, 25, 26, 27, 28, 29, 30, 31, 32, 33, 34, 35, 36, 37, 38, 39, 40, 41]" pbc="F F F"
Li       0.03833700      -0.06103500      -0.03136000  F        0        1
C        4.07732700       0.84786000      -2.23896400  F        0        1
C        3.74320200       2.29598700      -2.60308100  F        0        1
O        2.65825400       2.60954300      -1.71113600  F        0        1
C        2.17110100       1.48228200      -1.19240700  F        0        1
O        2.90473600       0.41855700      -1.52345100  F        0        1
O        1.18695500       1.43545400      -0.50217500  F        0        1
H        4.20996500       0.19896600      -3.10223100  F        0        1
H        4.93574300       0.76271000      -1.57116500  F        0        1
H        4.55751800       2.99237300      -2.41363400  F        0        1
H        3.38608700       2.40705500      -3.62778300  F        0        1
C       -3.38583100       3.60900600       0.72733400  T        1        2
C       -2.66585700       3.61580300      -0.62112900  T        1        2
O       -2.05831200       2.31140100      -0.66055000  T        1        2
C       -2.03664400       1.79955700       0.57132900  T        1        2
O       -2.71804700       2.54961900       1.43788200  T        1        2
O       -1.47421900       0.77839000       0.86923900  T        1        2
H       -3.26702500       4.53076600       1.29289600  T        1        2
H       -4.44322200       3.35274900       0.64529800  T        1        2
H       -3.33393600       3.71083600      -1.47452600  T        1        2
H       -1.87291700       4.36296400      -0.67832700  T        1        2
C       -2.21788900      -3.80407800      -1.68541400  F        0        1
C       -1.35628500      -3.98852300      -2.93616000  F        0        1
O       -0.69386700      -2.71700300      -3.06024600  F        0        1
C       -0.81395800      -2.04178700      -1.91735300  F        0        1
O       -1.62266000      -2.65664200      -1.05277900  F        0        1
O       -0.25940800      -0.99682000      -1.69785200  F        0        1
H       -3.25789700      -3.56743500      -1.91466200  F        0        1
H       -2.16970000      -4.64211700      -0.99312400  F        0        1
H       -0.59473600      -4.76085000      -2.82007200  F        0        1
H       -1.93339700      -4.16624900      -3.84131600  F        0        1
C        0.80593200      -0.42467500       4.50496400  F        0        1
C        1.01673000      -1.93641400       4.58287800  F        0        1
O        0.72031000      -2.36690900       3.24110400  F        0        1
C        0.74565900      -1.31265400       2.42587800  F        0        1
O        0.90021900      -0.16675100       3.09187100  F        0        1
O        0.64581600      -1.38963400       1.22927500  F        0        1
H       -0.18361300      -0.11335900       4.84300900  F        0        1
H        1.57549800       0.15238600       5.01325400  F        0        1
H        2.04767500      -2.21188400       4.81058400  F        0        1
H        0.33519700      -2.44063200       5.26465000  F        0        1
41
Properties=species:S:1:pos:R:3:is_solvent:L:1:group_label:I:1:tags:I:1 Coordinates=T from=T ORCA-job=T Li1EC4_r01_charge_1_spin_1_liquid_t_traj_2_frame_0001=T E=T -1378.038509317850=T solvent_indices_0based="_JSON [11, 12, 13, 14, 15, 16, 17, 18, 19, 20]" complex_indices_0based="_JSON [0, 1, 2, 3, 4, 5, 6, 7, 8, 9, 10, 21, 22, 23, 24, 25, 26, 27, 28, 29, 30, 31, 32, 33, 34, 35, 36, 37, 38, 39, 40]" complex_indices_1based="_JSON [1, 2, 3, 4, 5, 6, 7, 8, 9, 10, 11, 22, 23, 24, 25, 26, 27, 28, 29, 30, 31, 32, 33, 34, 35, 36, 37, 38, 39, 40, 41]" pbc="F F F"
Li       0.75761686      -0.27501019      -0.09913011  F        0        1
C        4.96063041       1.18307970      -1.96446389  F        0        1
C        4.58992628       2.66703245      -1.93362037  F        0        1
O        3.43395759       2.69088478      -1.07468936  F        0        1
C        2.96310564       1.45471661      -0.93395803  F        0        1
O        3.75622263       0.54423526      -1.49923618  F        0        1
O        1.93870187       1.19083537      -0.35965989  F        0        1
H        5.18670677       0.80718593      -2.96004125  F        0        1
H        5.76832715       0.93046181      -1.27625868  F        0        1
H        5.35804907       3.29998442      -1.49425994  F        0        1
H        4.29705658       3.05569504      -2.90981147  F        0        1
C       -3.74153486       2.66302506       0.23487621  T        1        2
C       -3.68760300       1.71595633      -0.96255334  T        1        2
O       -2.83924278       0.65613936      -0.48636023  T        1        2
C       -2.13737438       1.09615559       0.57718613  T        1        2
O       -2.57125914       2.29272619       0.98298815  T        1        2
O       -1.24448015       0.48624084       1.09078918  T        1        2
H       -3.66140926       3.71403304      -0.03462001  T        1        2
H       -4.61835544       2.50334770       0.86470654  T        1        2
H       -4.65489681       1.29459663      -1.22931916  T        1        2
H       -3.21832371       2.16493431      -1.83964854  T        1        2
C       -2.80985272      -2.77713534      -1.47451618  F        0        1
C       -2.86021833      -2.34932091      -2.94043394  F        0        1
O       -1.90902139      -1.26846311      -2.98561604  F        0        1
C       -1.13501547      -1.32648683      -1.90320872  F        0        1
O       -1.54137348      -2.25520631      -1.04099262  F        0        1
O       -0.17272476      -0.62119587      -1.73168872  F        0        1
H       -3.59093123      -2.31452939      -0.86929410  F        0        1
H       -2.80729463      -3.85522487      -1.32978636  F        0        1
H       -2.52435115      -3.12973405      -3.62486453  F        0        1
H       -3.83011284      -1.96919352      -3.25433097  F        0        1
C        0.87131158      -0.27858187       4.36137065  F        0        1
C        0.76854835      -1.77988697       4.62672364  F        0        1
O        0.61751080      -2.32435480       3.30145344  F        0        1
C        0.98476483      -1.40782866       2.40948428  F        0        1
O        1.26429703      -0.23470919       2.97740132  F        0        1
O        1.05915729      -1.61556745       1.22463366  F        0        1
H       -0.08347478       0.24034578       4.45904321  F        0        1
H        1.63490058       0.22101945       4.95357748  F        0        1
H        1.67502409      -2.19813777       5.06708516  F        0        1
H       -0.10016894      -2.06453085       5.21640643  F        0        1
41
Properties=species:S:1:pos:R:3:is_solvent:L:1:group_label:I:1:tags:I:1 Coordinates=T from=T ORCA-job=T Li1EC4_r01_charge_1_spin_1_liquid_t_traj_2_frame_0001=T E=T -1378.038509317850=T solvent_indices_0based="_JSON [11, 12, 13, 14, 15, 16, 17, 18, 19, 20]" complex_indices_0based="_JSON [0, 1, 2, 3, 4, 5, 6, 7, 8, 9, 10, 21, 22, 23, 24, 25, 26, 27, 28, 29, 30, 31, 32, 33, 34, 35, 36, 37, 38, 39, 40]" complex_indices_1based="_JSON [1, 2, 3, 4, 5, 6, 7, 8, 9, 10, 11, 22, 23, 24, 25, 26, 27, 28, 29, 30, 31, 32, 33, 34, 35, 36, 37, 38, 39, 40, 41]" pbc="F F F"
Li       0.75761700      -0.27501000      -0.09913000  F        0        1
C        4.96063000       1.18308000      -1.96446400  F        0        1
C        4.58992600       2.66703200      -1.93362000  F        0        1
O        3.43395800       2.69088500      -1.07468900  F        0        1
C        2.96310600       1.45471700      -0.93395800  F        0        1
O        3.75622300       0.54423500      -1.49923600  F        0        1
O        1.93870200       1.19083500      -0.35966000  F        0        1
H        5.18670700       0.80718600      -2.96004100  F        0        1
H        5.76832700       0.93046200      -1.27625900  F        0        1
H        5.35804900       3.29998400      -1.49426000  F        0        1
H        4.29705700       3.05569500      -2.90981100  F        0        1
C       -3.74153500       2.66302500       0.23487600  T        1        2
C       -3.68760300       1.71595600      -0.96255300  T        1        2
O       -2.83924300       0.65613900      -0.48636000  T        1        2
C       -2.13737400       1.09615600       0.57718600  T        1        2
O       -2.57125900       2.29272600       0.98298800  T        1        2
O       -1.24448000       0.48624100       1.09078900  T        1        2
H       -3.66140900       3.71403300      -0.03462000  T        1        2
H       -4.61835500       2.50334800       0.86470700  T        1        2
H       -4.65489700       1.29459700      -1.22931900  T        1        2
H       -3.21832400       2.16493400      -1.83964900  T        1        2
C       -2.80985300      -2.77713500      -1.47451600  F        0        1
C       -2.86021800      -2.34932100      -2.94043400  F        0        1
O       -1.90902100      -1.26846300      -2.98561600  F        0        1
C       -1.13501500      -1.32648700      -1.90320900  F        0        1
O       -1.54137300      -2.25520600      -1.04099300  F        0        1
O       -0.17272500      -0.62119600      -1.73168900  F        0        1
H       -3.59093100      -2.31452900      -0.86929400  F        0        1
H       -2.80729500      -3.85522500      -1.32978600  F        0        1
H       -2.52435100      -3.12973400      -3.62486500  F        0        1
H       -3.83011300      -1.96919400      -3.25433100  F        0        1
C        0.87131200      -0.27858200       4.36137100  F        0        1
C        0.76854800      -1.77988700       4.62672400  F        0        1
O        0.61751100      -2.32435500       3.30145300  F        0        1
C        0.98476500      -1.40782900       2.40948400  F        0        1
O        1.26429700      -0.23470900       2.97740100  F        0        1
O        1.05915700      -1.61556700       1.22463400  F        0        1
H       -0.08347500       0.24034600       4.45904300  F        0        1
H        1.63490100       0.22101900       4.95357700  F        0        1
H        1.67502400      -2.19813800       5.06708500  F        0        1
H       -0.10016900      -2.06453100       5.21640600  F        0        1
41
Properties=species:S:1:pos:R:3:is_solvent:L:1:group_label:I:1:tags:I:1 Coordinates=T from=T ORCA-job=T Li1EC4_r01_charge_1_spin_1_liquid_t_traj_2_frame_0002=T E=T -1378.035960938661=T solvent_indices_0based="_JSON [11, 12, 13, 14, 15, 16, 17, 18, 19, 20]" complex_indices_0based="_JSON [0, 1, 2, 3, 4, 5, 6, 7, 8, 9, 10, 21, 22, 23, 24, 25, 26, 27, 28, 29, 30, 31, 32, 33, 34, 35, 36, 37, 38, 39, 40]" complex_indices_1based="_JSON [1, 2, 3, 4, 5, 6, 7, 8, 9, 10, 11, 22, 23, 24, 25, 26, 27, 28, 29, 30, 31, 32, 33, 34, 35, 36, 37, 38, 39, 40, 41]" pbc="F F F"
Li       0.97794276      -0.27423496      -0.47069995  F        0        1
C        5.40017609       1.17030157      -1.92505446  F        0        1
C        5.06324744       2.65683391      -1.79200932  F        0        1
O        3.80842758       2.63909900      -1.08300092  F        0        1
C        3.29842414       1.41252902      -1.11961391  F        0        1
O        4.13312910       0.53222307      -1.67016735  F        0        1
O        2.20489730       1.13096857      -0.70036409  F        0        1
H        5.73450209       0.88465075      -2.92008477  F        0        1
H        6.11228789       0.82375297      -1.17521368  F        0        1
H        5.78330890       3.21744941      -1.19986461  F        0        1
H        4.90304382       3.14723986      -2.75286597  F        0        1
C       -4.11021734       2.33669791       0.94932596  T        1        2
C       -4.02841180       1.72726169      -0.45106368  T        1        2
O       -3.05295376       0.68205872      -0.28881761  T        1        2
C       -2.36319613       0.88975718       0.84972563  T        1        2
O       -2.89124831       1.89063296       1.56587460  T        1        2
O       -1.40938358       0.25043055       1.18141031  T        1        2
H       -4.12021706       3.42475719       0.94974482  T        1        2
H       -4.95121552       1.95409388       1.52966004  T        1        2
H       -4.96337434       1.28021982      -0.78382568  T        1        2
H       -3.65952273       2.42884268      -1.20062464  T        1        2
C       -2.84495236      -2.71424043      -1.42486950  F        0        1
C       -3.13184063      -2.12961122      -2.80680981  F        0        1
O       -2.19412115      -1.03961889      -2.89059295  F        0        1
C       -1.26388619      -1.19222966      -1.95198177  F        0        1
O       -1.52812809      -2.21094211      -1.13752687  F        0        1
O       -0.28746916      -0.49150598      -1.86041923  F        0        1
H       -3.52366526      -2.34406475      -0.65555074  F        0        1
H       -2.80955341      -3.80135677      -1.40631225  F        0        1
H       -2.91746297      -2.82615636      -3.61854685  F        0        1
H       -4.13708994      -1.72737901      -2.91396782  F        0        1
C        0.46961830       0.03613231       3.93284128  F        0        1
C        0.14421649      -1.42667485       4.22841086  F        0        1
O        0.23097445      -2.03740371       2.92575052  F        0        1
C        0.86827483      -1.21416233       2.10112507  F        0        1
O        1.16763634      -0.05080245       2.67775742  F        0        1
O        1.15598703      -1.49122155       0.96258769  F        0        1
H       -0.42214795       0.64472076       3.77876835  F        0        1
H        1.12915109       0.49716976       4.66480282  F        0        1
H        0.87669517      -1.90710565       4.87887078  F        0        1
H       -0.86112990      -1.58286214       4.61337041  F        0        1
41
Properties=species:S:1:pos:R:3:is_solvent:L:1:group_label:I:1:tags:I:1 Coordinates=T from=T ORCA-job=T Li1EC4_r01_charge_1_spin_1_liquid_t_traj_2_frame_0002=T E=T -1378.035960938661=T solvent_indices_0based="_JSON [11, 12, 13, 14, 15, 16, 17, 18, 19, 20]" complex_indices_0based="_JSON [0, 1, 2, 3, 4, 5, 6, 7, 8, 9, 10, 21, 22, 23, 24, 25, 26, 27, 28, 29, 30, 31, 32, 33, 34, 35, 36, 37, 38, 39, 40]" complex_indices_1based="_JSON [1, 2, 3, 4, 5, 6, 7, 8, 9, 10, 11, 22, 23, 24, 25, 26, 27, 28, 29, 30, 31, 32, 33, 34, 35, 36, 37, 38, 39, 40, 41]" pbc="F F F"
Li       0.97794300      -0.27423500      -0.47070000  F        0        1
C        5.40017600       1.17030200      -1.92505400  F        0        1
C        5.06324700       2.65683400      -1.79200900  F        0        1
O        3.80842800       2.63909900      -1.08300100  F        0        1
C        3.29842400       1.41252900      -1.11961400  F        0        1
O        4.13312900       0.53222300      -1.67016700  F        0        1
O        2.20489700       1.13096900      -0.70036400  F        0        1
H        5.73450200       0.88465100      -2.92008500  F        0        1
H        6.11228800       0.82375300      -1.17521400  F        0        1
H        5.78330900       3.21744900      -1.19986500  F        0        1
H        4.90304400       3.14724000      -2.75286600  F        0        1
C       -4.11021700       2.33669800       0.94932600  T        1        2
C       -4.02841200       1.72726200      -0.45106400  T        1        2
O       -3.05295400       0.68205900      -0.28881800  T        1        2
C       -2.36319600       0.88975700       0.84972600  T        1        2
O       -2.89124800       1.89063300       1.56587500  T        1        2
O       -1.40938400       0.25043100       1.18141000  T        1        2
H       -4.12021700       3.42475700       0.94974500  T        1        2
H       -4.95121600       1.95409400       1.52966000  T        1        2
H       -4.96337400       1.28022000      -0.78382600  T        1        2
H       -3.65952300       2.42884300      -1.20062500  T        1        2
C       -2.84495200      -2.71424000      -1.42486900  F        0        1
C       -3.13184100      -2.12961100      -2.80681000  F        0        1
O       -2.19412100      -1.03961900      -2.89059300  F        0        1
C       -1.26388600      -1.19223000      -1.95198200  F        0        1
O       -1.52812800      -2.21094200      -1.13752700  F        0        1
O       -0.28746900      -0.49150600      -1.86041900  F        0        1
H       -3.52366500      -2.34406500      -0.65555100  F        0        1
H       -2.80955300      -3.80135700      -1.40631200  F        0        1
H       -2.91746300      -2.82615600      -3.61854700  F        0        1
H       -4.13709000      -1.72737900      -2.91396800  F        0        1
C        0.46961800       0.03613200       3.93284100  F        0        1
C        0.14421600      -1.42667500       4.22841100  F        0        1
O        0.23097400      -2.03740400       2.92575100  F        0        1
C        0.86827500      -1.21416200       2.10112500  F        0        1
O        1.16763600      -0.05080200       2.67775700  F        0        1
O        1.15598700      -1.49122200       0.96258800  F        0        1
H       -0.42214800       0.64472100       3.77876800  F        0        1
H        1.12915100       0.49717000       4.66480300  F        0        1
H        0.87669500      -1.90710600       4.87887100  F        0        1
H       -0.86113000      -1.58286200       4.61337000  F        0        1
41
Properties=species:S:1:pos:R:3:is_solvent:L:1:group_label:I:1:tags:I:1 Coordinates=T from=T ORCA-job=T Li1EC4_r01_charge_1_spin_1_liquid_t_traj_2_frame_0003=T E=T -1378.036585787481=T solvent_indices_0based="_JSON [11, 12, 13, 14, 15, 16, 17, 18, 19, 20]" complex_indices_0based="_JSON [0, 1, 2, 3, 4, 5, 6, 7, 8, 9, 10, 21, 22, 23, 24, 25, 26, 27, 28, 29, 30, 31, 32, 33, 34, 35, 36, 37, 38, 39, 40]" complex_indices_1based="_JSON [1, 2, 3, 4, 5, 6, 7, 8, 9, 10, 11, 22, 23, 24, 25, 26, 27, 28, 29, 30, 31, 32, 33, 34, 35, 36, 37, 38, 39, 40, 41]" pbc="F F F"
Li       1.44600522       0.24381205      -0.20122992  F        0        1
C        5.80605650      -0.02654955      -2.51465148  F        0        1
C        6.17685732       1.39612898      -2.09323854  F        0        1
O        5.17401347       1.70881236      -1.10649096  F        0        1
C        4.17940415       0.83158131      -1.19563118  F        0        1
O        4.44413003      -0.14928867      -2.05772188  F        0        1
O        3.15723746       0.91561642      -0.56477366  F        0        1
H        5.82202023      -0.18266366      -3.59111642  F        0        1
H        6.40217527      -0.79004054      -2.01346853  F        0        1
H        7.15492689       1.47186274      -1.62299984  F        0        1
H        6.09196460       2.12051367      -2.90414015  F        0        1
C       -5.02175611       0.18009822       2.12868958  T        1        2
C       -5.23494658       0.08139603       0.61591957  T        1        2
O       -3.89984401      -0.10126715       0.11787263  T        1        2
C       -3.00384893       0.20220990       1.07412852  T        1        2
O       -3.61620021       0.46180779       2.24126094  T        1        2
O       -1.82391575       0.22825476       0.89954716  T        1        2
H       -5.57854782       0.99091235       2.59417615  T        1        2
H       -5.22561822      -0.75765676       2.64761730  T        1        2
H       -5.84011063      -0.77399992       0.32138614  T        1        2
H       -5.64263927       0.99675561       0.18398506  T        1        2
C       -2.37417000      -1.69960731      -2.46095942  F        0        1
C       -2.84262242      -0.34202583      -2.99406127  F        0        1
O       -1.88250998       0.57634899      -2.44521041  F        0        1
C       -0.85526486      -0.10255126      -1.94403606  F        0        1
O       -1.04844258      -1.41702094      -1.98137056  F        0        1
O        0.14814780       0.41918352      -1.52924295  F        0        1
H       -2.97041906      -2.05603530      -1.62278788  F        0        1
H       -2.30378658      -2.46734766      -3.22907138  F        0        1
H       -2.79881947      -0.26971637      -4.08141572  F        0        1
H       -3.82919533      -0.05767190      -2.63630696  F        0        1
C       -0.47851216       1.55244073       3.65732150  F        0        1
C       -0.65239258       0.18083235       4.31465652  F        0        1
O       -0.11723952      -0.72384162       3.33113961  F        0        1
C        0.51749153      -0.03284540       2.39283404  F        0        1
O        0.44935576       1.28163675       2.59293840  F        0        1
O        1.11373914      -0.53641948       1.47276811  F        0        1
H       -1.40086468       1.92770653       3.21521160  F        0        1
H       -0.03684929       2.29953579       4.31374123  F        0        1
H       -0.07584160       0.06475121       5.23291816  F        0        1
H       -1.69445749      -0.08068109       4.48680626  F        0        1
41
Properties=species:S:1:pos:R:3:is_solvent:L:1:group_label:I:1:tags:I:1 Coordinates=T from=T ORCA-job=T Li1EC4_r01_charge_1_spin_1_liquid_t_traj_2_frame_0003=T E=T -1378.036585787481=T solvent_indices_0based="_JSON [11, 12, 13, 14, 15, 16, 17, 18, 19, 20]" complex_indices_0based="_JSON [0, 1, 2, 3, 4, 5, 6, 7, 8, 9, 10, 21, 22, 23, 24, 25, 26, 27, 28, 29, 30, 31, 32, 33, 34, 35, 36, 37, 38, 39, 40]" complex_indices_1based="_JSON [1, 2, 3, 4, 5, 6, 7, 8, 9, 10, 11, 22, 23, 24, 25, 26, 27, 28, 29, 30, 31, 32, 33, 34, 35, 36, 37, 38, 39, 40, 41]" pbc="F F F"
Li       1.44600500       0.24381200      -0.20123000  F        0        1
C        5.80605600      -0.02655000      -2.51465100  F        0        1
C        6.17685700       1.39612900      -2.09323900  F        0        1
O        5.17401300       1.70881200      -1.10649100  F        0        1
C        4.17940400       0.83158100      -1.19563100  F        0        1
O        4.44413000      -0.14928900      -2.05772200  F        0        1
O        3.15723700       0.91561600      -0.56477400  F        0        1
H        5.82202000      -0.18266400      -3.59111600  F        0        1
H        6.40217500      -0.79004100      -2.01346900  F        0        1
H        7.15492700       1.47186300      -1.62300000  F        0        1
H        6.09196500       2.12051400      -2.90414000  F        0        1
C       -5.02175600       0.18009800       2.12869000  T        1        2
C       -5.23494700       0.08139600       0.61592000  T        1        2
O       -3.89984400      -0.10126700       0.11787300  T        1        2
C       -3.00384900       0.20221000       1.07412900  T        1        2
O       -3.61620000       0.46180800       2.24126100  T        1        2
O       -1.82391600       0.22825500       0.89954700  T        1        2
H       -5.57854800       0.99091200       2.59417600  T        1        2
H       -5.22561800      -0.75765700       2.64761700  T        1        2
H       -5.84011100      -0.77400000       0.32138600  T        1        2
H       -5.64263900       0.99675600       0.18398500  T        1        2
C       -2.37417000      -1.69960700      -2.46095900  F        0        1
C       -2.84262200      -0.34202600      -2.99406100  F        0        1
O       -1.88251000       0.57634900      -2.44521000  F        0        1
C       -0.85526500      -0.10255100      -1.94403600  F        0        1
O       -1.04844300      -1.41702100      -1.98137100  F        0        1
O        0.14814800       0.41918400      -1.52924300  F        0        1
H       -2.97041900      -2.05603500      -1.62278800  F        0        1
H       -2.30378700      -2.46734800      -3.22907100  F        0        1
H       -2.79881900      -0.26971600      -4.08141600  F        0        1
H       -3.82919500      -0.05767200      -2.63630700  F        0        1
C       -0.47851200       1.55244100       3.65732100  F        0        1
C       -0.65239300       0.18083200       4.31465700  F        0        1
O       -0.11724000      -0.72384200       3.33114000  F        0        1
C        0.51749200      -0.03284500       2.39283400  F        0        1
O        0.44935600       1.28163700       2.59293800  F        0        1
O        1.11373900      -0.53641900       1.47276800  F        0        1
H       -1.40086500       1.92770700       3.21521200  F        0        1
H       -0.03684900       2.29953600       4.31374100  F        0        1
H       -0.07584200       0.06475100       5.23291800  F        0        1
H       -1.69445700      -0.08068100       4.48680600  F        0        1
41
Properties=species:S:1:pos:R:3:is_solvent:L:1:group_label:I:1:tags:I:1 Coordinates=T from=T ORCA-job=T Li1EC4_r01_charge_1_spin_1_liquid_t_traj_2_frame_0004=T E=T -1378.038715663977=T solvent_indices_0based="_JSON [11, 12, 13, 14, 15, 16, 17, 18, 19, 20]" complex_indices_0based="_JSON [0, 1, 2, 3, 4, 5, 6, 7, 8, 9, 10, 21, 22, 23, 24, 25, 26, 27, 28, 29, 30, 31, 32, 33, 34, 35, 36, 37, 38, 39, 40]" complex_indices_1based="_JSON [1, 2, 3, 4, 5, 6, 7, 8, 9, 10, 11, 22, 23, 24, 25, 26, 27, 28, 29, 30, 31, 32, 33, 34, 35, 36, 37, 38, 39, 40, 41]" pbc="F F F"
Li       1.52643068       0.38457896      -0.28371948  F        0        1
C        5.89387176      -0.09544194      -2.57248104  F        0        1
C        6.42430767       1.17130162      -1.89935957  F        0        1
O        5.44104776       1.42431448      -0.87550307  F        0        1