41
Properties=species:S:1:pos:R:3:is_solvent:L:1:group_label:I:1:tags:I:1 Coordinates=T from=T ORCA-job=T Li1EC4_r09_charge_1_spin_1_liquid_t_traj_3_frame_0000=T E=T -1378.044580240701=T solvent_indices_0based="_JSON [21, 22, 23, 24, 25, 26, 27, 28, 29, 30]" complex_indices_0based="_JSON [0, 1, 2, 3, 4, 5, 6, 7, 8, 9, 10, 11, 12, 13, 14, 15, 16, 17, 18, 19, 20, 31, 32, 33, 34, 35, 36, 37, 38, 39, 40]" complex_indices_1based="_JSON [1, 2, 3, 4, 5, 6, 7, 8, 9, 10, 11, 12, 13, 14, 15, 16, 17, 18, 19, 20, 21, 32, 33, 34, 35, 36, 37, 38, 39, 40, 41]" pbc="F F F"
Li       0.03941667       0.18735239       0.04537848  F        0        1
C        4.31569747      -0.82996130       2.59334116  F        0        1
C        4.20264268       0.62814324       2.14529951  F        0        1
O        2.93434978       0.65668150       1.46518768  F        0        1
C        2.53666665      -0.59181408       1.21282098  F        0        1
O        3.34479225      -1.49695487       1.76529817  F        0        1
O        1.56666182      -0.87261252       0.55890084  F        0        1
H        5.29089114      -1.27265361       2.40198575  F        0        1
H        4.03310391      -0.97816866       3.63636571  F        0        1
H        4.16516640       1.33571856       2.97089923  F        0        1
H        4.97762834       0.91838153       1.43470765  F        0        1
C       -2.54510930       3.58997189       2.79899747  F        0        1
C       -3.00832878       3.40266802       1.35415777  F        0        1
O       -2.32851036       2.19812558       0.95684291  F        0        1
C       -1.33644557       1.94828891       1.81462652  F        0        1
O       -1.36135794       2.77212006       2.86226916  F        0        1
O       -0.51836141       1.07875263       1.66540460  F        0        1
H       -2.26758550       4.61420671       3.03885591  F        0        1
H       -3.25997692       3.21220582       3.53120881  F        0        1
H       -4.07967015       3.24159030       1.25481760  F        0        1
H       -2.68478494       4.20997713       0.69565745  F        0        1
C       -2.02561798      -3.91053985       0.86715124  T        1        2
C       -2.21127391      -4.31170896      -0.59700327  T        1        2
O       -2.07061784      -3.05929661      -1.29360711  T        1        2
C       -1.52169239      -2.15832611      -0.47831698  T        1        2
O       -1.39755801      -2.61913275       0.76799210  T        1        2
O       -1.18523978      -1.05717055      -0.82761219  T        1        2
H       -2.96925114      -3.79066214       1.40103680  T        1        2
H       -1.36255725      -4.57320437       1.41936873  T        1        2
H       -1.43448782      -4.98889493      -0.95449257  T        1        2
H       -3.19555901      -4.71875014      -0.81846489  T        1        2
C        0.63587355       0.61932870      -4.49749906  F        0        1
C        0.37418004       2.11831061      -4.63105790  F        0        1
O       -0.02963747       2.48780824      -3.29843760  F        0        1
C        0.32977943       1.52531785      -2.44810314  F        0        1
O        0.82689306       0.45926117      -3.07953467  F        0        1
O        0.22326569       1.61265137      -1.25290559  F        0        1
H       -0.21893615       0.01085212      -4.79662892  F        0        1
H        1.53621789       0.28269896      -5.00673870  F        0        1
H        1.26918626       2.68778941      -4.88585746  F        0        1
H       -0.43517381       2.36233064      -5.31572731  F        0        1
41
Properties=species:S:1:pos:R:3:is_solvent:L:1:group_label:I:1:tags:I:1 Coordinates=T from=T ORCA-job=T Li1EC4_r09_charge_1_spin_1_liquid_t_traj_3_frame_0000=T E=T -1378.044580240701=T solvent_indices_0based="_JSON [21, 22, 23, 24, 25, 26, 27, 28, 29, 30]" complex_indices_0based="_JSON [0, 1, 2, 3, 4, 5, 6, 7, 8, 9, 10, 11, 12, 13, 14, 15, 16, 17, 18, 19, 20, 31, 32, 33, 34, 35, 36, 37, 38, 39, 40]" complex_indices_1based="_JSON [1, 2, 3, 4, 5, 6, 7, 8, 9, 10, 11, 12, 13, 14, 15, 16, 17, 18, 19, 20, 21, 32, 33, 34, 35, 36, 37, 38, 39, 40, 41]" pbc="F F F"
Li       0.03941700       0.18735200       0.04537800  F        0        1
C        4.31569700      -0.82996100       2.59334100  F        0        1
C        4.20264300       0.62814300       2.14530000  F        0        1
O        2.93435000       0.65668200       1.46518800  F        0        1
C        2.53666700      -0.59181400       1.21282100  F        0        1
O        3.34479200      -1.49695500       1.76529800  F        0        1
O        1.56666200      -0.87261300       0.55890100  F        0        1
H        5.29089100      -1.27265400       2.40198600  F        0        1
H        4.03310400      -0.97816900       3.63636600  F        0        1
H        4.16516600       1.33571900       2.97089900  F        0        1
H        4.97762800       0.91838200       1.43470800  F        0        1
C       -2.54510900       3.58997200       2.79899700  F        0        1
C       -3.00832900       3.40266800       1.35415800  F        0        1
O       -2.32851000       2.19812600       0.95684300  F        0        1
C       -1.33644600       1.94828900       1.81462700  F        0        1
O       -1.36135800       2.77212000       2.86226900  F        0        1
O       -0.51836100       1.07875300       1.66540500  F        0        1
H       -2.26758600       4.61420700       3.03885600  F        0        1
H       -3.25997700       3.21220600       3.53120900  F        0        1
H       -4.07967000       3.24159000       1.25481800  F        0        1
H       -2.68478500       4.20997700       0.69565700  F        0        1
C       -2.02561800      -3.91054000       0.86715100  T        1        2
C       -2.21127400      -4.31170900      -0.59700300  T        1        2
O       -2.07061800      -3.05929700      -1.29360700  T        1        2
C       -1.52169200      -2.15832600      -0.47831700  T        1        2
O       -1.39755800      -2.61913300       0.76799200  T        1        2
O       -1.18524000      -1.05717100      -0.82761200  T        1        2
H       -2.96925100      -3.79066200       1.40103700  T        1        2
H       -1.36255700      -4.57320400       1.41936900  T        1        2
H       -1.43448800      -4.98889500      -0.95449300  T        1        2
H       -3.19555900      -4.71875000      -0.81846500  T        1        2
C        0.63587400       0.61932900      -4.49749900  F        0        1
C        0.37418000       2.11831100      -4.63105800  F        0        1
O       -0.02963700       2.48780800      -3.29843800  F        0        1
C        0.32977900       1.52531800      -2.44810300  F        0        1
O        0.82689300       0.45926100      -3.07953500  F        0        1
O        0.22326600       1.61265100      -1.25290600  F        0        1
H       -0.21893600       0.01085200      -4.79662900  F        0        1
H        1.53621800       0.28269900      -5.00673900  F        0        1
H        1.26918600       2.68778900      -4.88585700  F        0        1
H       -0.43517400       2.36233100      -5.31572700  F        0        1
41
Properties=species:S:1:pos:R:3:is_solvent:L:1:group_label:I:1:tags:I:1 Coordinates=T from=T ORCA-job=T Li1EC4_r09_charge_1_spin_1_liquid_t_traj_3_frame_0001=T E=T -1378.039557310981=T solvent_indices_0based="_JSON [21, 22, 23, 24, 25, 26, 27, 28, 29, 30]" complex_indices_0based="_JSON [0, 1, 2, 3, 4, 5, 6, 7, 8, 9, 10, 11, 12, 13, 14, 15, 16, 17, 18, 19, 20, 31, 32, 33, 34, 35, 36, 37, 38, 39, 40]" complex_indices_1based="_JSON [1, 2, 3, 4, 5, 6, 7, 8, 9, 10, 11, 12, 13, 14, 15, 16, 17, 18, 19, 20, 21, 32, 33, 34, 35, 36, 37, 38, 39, 40, 41]" pbc="F F F"
Li       0.16472480       0.45174211       0.40714963  F        0        1
C        4.59100287      -1.26933110       2.27904640  F        0        1
C        4.51743494       0.25172531       2.13327466  F        0        1
O        3.16008596       0.46420357       1.69894849  F        0        1
C        2.64204053      -0.69223604       1.28736080  F        0        1
O        3.45599604      -1.71967962       1.51422393  F        0        1
O        1.56048007      -0.79838829       0.76693333  F        0        1
H        5.49039674      -1.70571879       1.84981186  F        0        1
H        4.46396282      -1.60758262       3.30818929  F        0        1
H        4.66831314       0.79041464       3.06627638  F        0        1
H        5.18575167       0.63972329       1.36349808  F        0        1
C       -3.08508908       3.52533486       2.77107249  F        0        1
C       -3.31385909       3.36165923       1.26823786  F        0        1
O       -2.51765494       2.20328796       0.95301676  F        0        1
C       -1.65488467       1.98275354       1.94375795  F        0        1
O       -1.87855931       2.77000938       2.99243916  F        0        1
O       -0.77419386       1.16056366       1.90117715  F        0        1
H       -2.90822729       4.55357618       3.07901551  F        0        1
H       -3.87955930       3.08372190       3.37432528  F        0        1
H       -4.34777525       3.15204858       1.00268001  F        0        1
H       -2.93731092       4.20181841       0.68321435  F        0        1
C       -1.91132235      -3.75331160       0.37003797  T        1        2
C       -1.84055395      -4.18742334      -1.09512117  T        1        2
O       -1.71821986      -2.93636384      -1.79439902  T        1        2
C       -1.37057792      -1.97695550      -0.93099267  T        1        2
O       -1.38509172      -2.41538247       0.33227405  T        1        2
O       -1.08184651      -0.85603171      -1.25074996  T        1        2
H       -2.93247070      -3.71046213       0.75193335  T        1        2
H       -1.28924030      -4.35072629       1.03335833  T        1        2
H       -0.96047542      -4.79272669      -1.31740754  T        1        2
H       -2.73880957      -4.69288277      -1.44390373  T        1        2
C        0.43261572       0.47675267      -4.05299824  F        0        1
C       -0.47786818       1.68814210      -4.24690815  F        0        1
O       -0.68744630       2.14317976      -2.89671033  F        0        1
C        0.21639457       1.58028598      -2.09960605  F        0        1
O        0.99461929       0.71729146      -2.74972431  F        0        1
O        0.32342322       1.83185112      -0.92443372  F        0        1
H       -0.11608912      -0.46511200      -4.01319698  F        0        1
H        1.24469006       0.41812267      -4.77444102  F        0        1
H       -0.00376641       2.49302251      -4.81079624  F        0        1
H       -1.44509259       1.44413769      -4.68099652  F        0        1
41
Properties=species:S:1:pos:R:3:is_solvent:L:1:group_label:I:1:tags:I:1 Coordinates=T from=T ORCA-job=T Li1EC4_r09_charge_1_spin_1_liquid_t_traj_3_frame_0001=T E=T -1378.039557310981=T solvent_indices_0based="_JSON [21, 22, 23, 24, 25, 26, 27, 28, 29, 30]" complex_indices_0based="_JSON [0, 1, 2, 3, 4, 5, 6, 7, 8, 9, 10, 11, 12, 13, 14, 15, 16, 17, 18, 19, 20, 31, 32, 33, 34, 35, 36, 37, 38, 39, 40]" complex_indices_1based="_JSON [1, 2, 3, 4, 5, 6, 7, 8, 9, 10, 11, 12, 13, 14, 15, 16, 17, 18, 19, 20, 21, 32, 33, 34, 35, 36, 37, 38, 39, 40, 41]" pbc="F F F"
Li       0.16472500       0.45174200       0.40715000  F        0        1
C        4.59100300      -1.26933100       2.27904600  F        0        1
C        4.51743500       0.25172500       2.13327500  F        0        1
O        3.16008600       0.46420400       1.69894800  F        0        1
C        2.64204100      -0.69223600       1.28736100  F        0        1
O        3.45599600      -1.71968000       1.51422400  F        0        1
O        1.56048000      -0.79838800       0.76693300  F        0        1
H        5.49039700      -1.70571900       1.84981200  F        0        1
H        4.46396300      -1.60758300       3.30818900  F        0        1
H        4.66831300       0.79041500       3.06627600  F        0        1
H        5.18575200       0.63972300       1.36349800  F        0        1
C       -3.08508900       3.52533500       2.77107200  F        0        1
C       -3.31385900       3.36165900       1.26823800  F        0        1
O       -2.51765500       2.20328800       0.95301700  F        0        1
C       -1.65488500       1.98275400       1.94375800  F        0        1
O       -1.87855900       2.77000900       2.99243900  F        0        1
O       -0.77419400       1.16056400       1.90117700  F        0        1
H       -2.90822700       4.55357600       3.07901600  F        0        1
H       -3.87955900       3.08372200       3.37432500  F        0        1
H       -4.34777500       3.15204900       1.00268000  F        0        1
H       -2.93731100       4.20181800       0.68321400  F        0        1
C       -1.91132200      -3.75331200       0.37003800  T        1        2
C       -1.84055400      -4.18742300      -1.09512100  T        1        2
O       -1.71822000      -2.93636400      -1.79439900  T        1        2
C       -1.37057800      -1.97695500      -0.93099300  T        1        2
O       -1.38509200      -2.41538200       0.33227400  T        1        2
O       -1.08184700      -0.85603200      -1.25075000  T        1        2
H       -2.93247100      -3.71046200       0.75193300  T        1        2
H       -1.28924000      -4.35072600       1.03335800  T        1        2
H       -0.96047500      -4.79272700      -1.31740800  T        1        2
H       -2.73881000      -4.69288300      -1.44390400  T        1        2
C        0.43261600       0.47675300      -4.05299800  F        0        1
C       -0.47786800       1.68814200      -4.24690800  F        0        1
O       -0.68744600       2.14318000      -2.89671000  F        0        1
C        0.21639500       1.58028600      -2.09960600  F        0        1
O        0.99461900       0.71729100      -2.74972400  F        0        1
O        0.32342300       1.83185100      -0.92443400  F        0        1
H       -0.11608900      -0.46511200      -4.01319700  F        0        1
H        1.24469000       0.41812300      -4.77444100  F        0        1
H       -0.00376600       2.49302300      -4.81079600  F        0        1
H       -1.44509300       1.44413800      -4.68099700  F        0        1
41
Properties=species:S:1:pos:R:3:is_solvent:L:1:group_label:I:1:tags:I:1 Coordinates=T from=T ORCA-job=T Li1EC4_r09_charge_1_spin_1_liquid_t_traj_3_frame_0002=T E=T -1378.041773692392=T solvent_indices_0based="_JSON [21, 22, 23, 24, 25, 26, 27, 28, 29, 30]" complex_indices_0based="_JSON [0, 1, 2, 3, 4, 5, 6, 7, 8, 9, 10, 11, 12, 13, 14, 15, 16, 17, 18, 19, 20, 31, 32, 33, 34, 35, 36, 37, 38, 39, 40]" complex_indices_1based="_JSON [1, 2, 3, 4, 5, 6, 7, 8, 9, 10, 11, 12, 13, 14, 15, 16, 17, 18, 19, 20, 21, 32, 33, 34, 35, 36, 37, 38, 39, 40, 41]" pbc="F F F"
Li      -0.48760880       0.00744515       0.40792690  F        0        1
C        4.34243633      -1.38660638       1.07504846  F        0        1
C        4.07779803       0.10589813       0.87079325  F        0        1
O        2.63870333       0.18004262       0.91091816  F        0        1
C        2.13325173      -1.03964237       0.75199937  F        0        1
O        3.06921040      -1.98244481       0.75345278  F        0        1
O        0.95456719      -1.26786480       0.62388338  F        0        1
H        5.09247313      -1.79598202       0.40185089  F        0        1
H        4.58488179      -1.64046927       2.10765600  F        0        1
H        4.47644626       0.73428529       1.66412770  F        0        1
H        4.40757236       0.47094012      -0.10265978  F        0        1
C       -3.50063066       2.93746956       3.18770191  F        0        1
C       -3.87869802       2.80575669       1.71269028  F        0        1
O       -3.12314554       1.64984225       1.29618096  F        0        1
C       -2.16524487       1.41086643       2.19172551  F        0        1
O       -2.27748165       2.17794524       3.27012457  F        0        1
O       -1.29736721       0.58578928       2.04158686  F        0        1
H       -3.29147159       3.95789481       3.50075732  F        0        1
H       -4.22947703       2.47971774       3.85768172  F        0        1
H       -4.93530613       2.60534541       1.54801546  F        0        1
H       -3.55646758       3.65532026       1.10935011  F        0        1
C       -2.19876020      -2.53439509       0.59332290  T        1        2
C       -1.72495384      -3.79865253      -0.13666803  T        1        2
O       -1.26263458      -3.30669263      -1.40614517  T        1        2
C       -1.18412480      -1.97964739      -1.38879370  T        1        2
O       -1.72349662      -1.47117994      -0.25074175  T        1        2
O       -0.70563351      -1.28991682      -2.23485016  T        1        2
H       -3.28325609      -2.45273877       0.66076709  T        1        2
H       -1.74983322      -2.41680792       1.57826042  T        1        2
H       -0.88668387      -4.28310208       0.36376975  T        1        2
H       -2.52074537      -4.51854083      -0.31922506  T        1        2
C        1.43295440       0.58050753      -3.64624378  F        0        1
C        0.34987178       1.52571995      -4.16751662  F        0        1
O       -0.44917832       1.77450268      -2.99519022  F        0        1
C        0.19208722       1.33806082      -1.92065735  F        0        1
O        1.36508644       0.77923145      -2.21988172  F        0        1
O       -0.23005247       1.45292516      -0.79481995  F        0        1
H        1.21179820      -0.46713091      -3.84796769  F        0        1
H        2.43529509       0.83848220      -3.98188450  F        0        1
H        0.74310818       2.48036518      -4.51944766  F        0        1
H       -0.28807400       1.07688615      -4.92574874  F        0        1
41
Properties=species:S:1:pos:R:3:is_solvent:L:1:group_label:I:1:tags:I:1 Coordinates=T from=T ORCA-job=T Li1EC4_r09_charge_1_spin_1_liquid_t_traj_3_frame_0002=T E=T -1378.041773692392=T solvent_indices_0based="_JSON [21, 22, 23, 24, 25, 26, 27, 28, 29, 30]" complex_indices_0based="_JSON [0, 1, 2, 3, 4, 5, 6, 7, 8, 9, 10, 11, 12, 13, 14, 15, 16, 17, 18, 19, 20, 31, 32, 33, 34, 35, 36, 37, 38, 39, 40]" complex_indices_1based="_JSON [1, 2, 3, 4, 5, 6, 7, 8, 9, 10, 11, 12, 13, 14, 15, 16, 17, 18, 19, 20, 21, 32, 33, 34, 35, 36, 37, 38, 39, 40, 41]" pbc="F F F"
Li      -0.48760900       0.00744500       0.40792700  F        0        1
C        4.34243600      -1.38660600       1.07504800  F        0        1
C        4.07779800       0.10589800       0.87079300  F        0        1
O        2.63870300       0.18004300       0.91091800  F        0        1
C        2.13325200      -1.03964200       0.75199900  F        0        1
O        3.06921000      -1.98244500       0.75345300  F        0        1
O        0.95456700      -1.26786500       0.62388300  F        0        1
H        5.09247300      -1.79598200       0.40185100  F        0        1
H        4.58488200      -1.64046900       2.10765600  F        0        1
H        4.47644600       0.73428500       1.66412800  F        0        1
H        4.40757200       0.47094000      -0.10266000  F        0        1
C       -3.50063100       2.93747000       3.18770200  F        0        1
C       -3.87869800       2.80575700       1.71269000  F        0        1
O       -3.12314600       1.64984200       1.29618100  F        0        1
C       -2.16524500       1.41086600       2.19172600  F        0        1
O       -2.27748200       2.17794500       3.27012500  F        0        1
O       -1.29736700       0.58578900       2.04158700  F        0        1
H       -3.29147200       3.95789500       3.50075700  F        0        1
H       -4.22947700       2.47971800       3.85768200  F        0        1
H       -4.93530600       2.60534500       1.54801500  F        0        1
H       -3.55646800       3.65532000       1.10935000  F        0        1
C       -2.19876000      -2.53439500       0.59332300  T        1        2
C       -1.72495400      -3.79865300      -0.13666800  T        1        2
O       -1.26263500      -3.30669300      -1.40614500  T        1        2
C       -1.18412500      -1.97964700      -1.38879400  T        1        2
O       -1.72349700      -1.47118000      -0.25074200  T        1        2
O       -0.70563400      -1.28991700      -2.23485000  T        1        2
H       -3.28325600      -2.45273900       0.66076700  T        1        2
H       -1.74983300      -2.41680800       1.57826000  T        1        2
H       -0.88668400      -4.28310200       0.36377000  T        1        2
H       -2.52074500      -4.51854100      -0.31922500  T        1        2
C        1.43295400       0.58050800      -3.64624400  F        0        1
C        0.34987200       1.52572000      -4.16751700  F        0        1
O       -0.44917800       1.77450300      -2.99519000  F        0        1
C        0.19208700       1.33806100      -1.92065700  F        0        1
O        1.36508600       0.77923100      -2.21988200  F        0        1
O       -0.23005200       1.45292500      -0.79482000  F        0        1
H        1.21179800      -0.46713100      -3.84796800  F        0        1
H        2.43529500       0.83848200      -3.98188500  F        0        1
H        0.74310800       2.48036500      -4.51944800  F        0        1
H       -0.28807400       1.07688600      -4.92574900  F        0        1
41
Properties=species:S:1:pos:R:3:is_solvent:L:1:group_label:I:1:tags:I:1 Coordinates=T from=T ORCA-job=T Li1EC4_r09_charge_1_spin_1_liquid_t_traj_3_frame_0003=T E=T -1378.037249493757=T solvent_indices_0based="_JSON [21, 22, 23, 24, 25, 26, 27, 28, 29, 30]" complex_indices_0based="_JSON [0, 1, 2, 3, 4, 5, 6, 7, 8, 9, 10, 11, 12, 13, 14, 15, 16, 17, 18, 19, 20, 31, 32, 33, 34, 35, 36, 37, 38, 39, 40]" complex_indices_1based="_JSON [1, 2, 3, 4, 5, 6, 7, 8, 9, 10, 11, 12, 13, 14, 15, 16, 17, 18, 19, 20, 21, 32, 33, 34, 35, 36, 37, 38, 39, 40, 41]" pbc="F F F"
Li       1.32912255       0.30181303       0.23677299  F        0        1
C        6.27305420       1.09599614       1.74765696  F        0        1
C        5.40958757       2.20932349       2.34209480  F        0        1
O        4.07421516       1.80326420       1.98025949  F        0        1
C        4.14112513       0.87271536       1.02927228  F        0        1
O        5.38899669       0.48593567       0.78638926  F        0        1
O        3.18147350       0.43052154       0.45177525  F        0        1
H        7.15413844       1.45731993       1.22187764  F        0        1
H        6.55492891       0.33664765       2.47810159  F        0        1
H        5.46619862       2.27637462       3.42637775  F        0        1
H        5.60068224       3.18509333       1.89372468  F        0        1
C       -2.84436015      -0.52328394       2.93031210  F        0        1
C       -2.70534954       0.96513991       2.59709528  F        0        1
O       -1.43425349       1.03012143       1.92655399  F        0        1
C       -0.79398013      -0.12705139       2.07084103  F        0        1
O       -1.51415017      -1.02992306       2.72473872  F        0        1
O        0.32834913      -0.32669607       1.67787532  F        0        1
H       -3.12800523      -0.71605947       3.96304243  F        0        1
H       -3.51420388      -1.04550422       2.24767699  F        0        1
H       -3.47029483       1.32168598       1.91143739  F        0        1
H       -2.65614705       1.60191732       3.48091834  F        0        1
C       -5.06807134      -0.06690911      -1.25966427  T        1        2
C       -4.69727520      -1.04505127      -2.37227643  T        1        2
O       -3.27843976      -1.20362151      -2.19613643  T        1        2
C       -2.92431264      -0.76795836      -0.97453921  T        1        2
O       -3.96735266      -0.20064392      -0.34089525  T        1        2
O       -1.82880121      -0.87615702      -0.50952961  T        1        2
H       -5.10712444       0.96944675      -1.59965562  T        1        2
H       -5.98788486      -0.32708477      -0.73981117  T        1        2
H       -5.17084056      -2.02109563      -2.25402506  T        1        2
H       -4.88235263      -0.65713095      -3.37198459  T        1        2
C        0.03531912      -2.28035035      -3.02775599  F        0        1
C       -0.50913544      -1.26481139      -4.02994445  F        0        1
O       -0.46379627      -0.03032183      -3.28602833  F        0        1
C        0.32408069      -0.19114679      -2.22902189  F        0        1
O        0.75729167      -1.44511352      -2.10386695  F        0        1
O        0.62805295       0.69654004      -1.47108307  F        0        1
H       -0.75326973      -2.79074970      -2.47437941  F        0        1
H        0.73033003      -2.99682178      -3.45994249  F        0        1
H        0.12170065      -1.15188206      -4.91281573  F        0        1
H       -1.54076192      -1.45069083      -4.31800588  F        0        1
41
Properties=species:S:1:pos:R:3:is_solvent:L:1:group_label:I:1:tags:I:1 Coordinates=T from=T ORCA-job=T Li1EC4_r09_charge_1_spin_1_liquid_t_traj_3_frame_0003=T E=T -1378.037249493757=T solvent_indices_0based="_JSON [21, 22, 23, 24, 25, 26, 27, 28, 29, 30]" complex_indices_0based="_JSON [0, 1, 2, 3, 4, 5, 6, 7, 8, 9, 10, 11, 12, 13, 14, 15, 16, 17, 18, 19, 20, 31, 32, 33, 34, 35, 36, 37, 38, 39, 40]" complex_indices_1based="_JSON [1, 2, 3, 4, 5, 6, 7, 8, 9, 10, 11, 12, 13, 14, 15, 16, 17, 18, 19, 20, 21, 32, 33, 34, 35, 36, 37, 38, 39, 40, 41]" pbc="F F F"
Li       1.32912300       0.30181300       0.23677300  F        0        1
C        6.27305400       1.09599600       1.74765700  F        0        1
C        5.40958800       2.20932300       2.34209500  F        0        1
O        4.07421500       1.80326400       1.98025900  F        0        1
C        4.14112500       0.87271500       1.02927200  F        0        1
O        5.38899700       0.48593600       0.78638900  F        0        1
O        3.18147400       0.43052200       0.45177500  F        0        1
H        7.15413800       1.45732000       1.22187800  F        0        1
H        6.55492900       0.33664800       2.47810200  F        0        1
H        5.46619900       2.27637500       3.42637800  F        0        1
H        5.60068200       3.18509300       1.89372500  F        0        1
C       -2.84436000      -0.52328400       2.93031200  F        0        1
C       -2.70535000       0.96514000       2.59709500  F        0        1
O       -1.43425300       1.03012100       1.92655400  F        0        1
C       -0.79398000      -0.12705100       2.07084100  F        0        1
O       -1.51415000      -1.02992300       2.72473900  F        0        1
O        0.32834900      -0.32669600       1.67787500  F        0        1
H       -3.12800500      -0.71605900       3.96304200  F        0        1
H       -3.51420400      -1.04550400       2.24767700  F        0        1
H       -3.47029500       1.32168600       1.91143700  F        0        1
H       -2.65614700       1.60191700       3.48091800  F        0        1
C       -5.06807100      -0.06690900      -1.25966400  T        1        2
C       -4.69727500      -1.04505100      -2.37227600  T        1        2
O       -3.27844000      -1.20362200      -2.19613600  T        1        2
C       -2.92431300      -0.76795800      -0.97453900  T        1        2
O       -3.96735300      -0.20064400      -0.34089500  T        1        2
O       -1.82880100      -0.87615700      -0.50953000  T        1        2
H       -5.10712400       0.96944700      -1.59965600  T        1        2
H       -5.98788500      -0.32708500      -0.73981100  T        1        2
H       -5.17084100      -2.02109600      -2.25402500  T        1        2
H       -4.88235300      -0.65713100      -3.37198500  T        1        2
C        0.03531900      -2.28035000      -3.02775600  F        0        1
C       -0.50913500      -1.26481100      -4.02994400  F        0        1
O       -0.46379600      -0.03032200      -3.28602800  F        0        1
C        0.32408100      -0.19114700      -2.22902200  F        0        1
O        0.75729200      -1.44511400      -2.10386700  F        0        1
O        0.62805300       0.69654000      -1.47108300  F        0        1
H       -0.75327000      -2.79075000      -2.47437900  F        0        1
H        0.73033000      -2.99682200      -3.45994200  F        0        1
H        0.12170100      -1.15188200      -4.91281600  F        0        1
H       -1.54076200      -1.45069100      -4.31800600  F        0        1
41
Properties=species:S:1:pos:R:3:is_solvent:L:1:group_label:I:1:tags:I:1 Coordinates=T from=T ORCA-job=T Li1EC4_r09_charge_1_spin_1_liquid_t_traj_3_frame_0004=T E=T -1378.039202282297=T solvent_indices_0based="_JSON [21, 22, 23, 24, 25, 26, 27, 28, 29, 30]" complex_indices_0based="_JSON [0, 1, 2, 3, 4, 5, 6, 7, 8, 9, 10, 11, 12, 13, 14, 15, 16, 17, 18, 19, 20, 31, 32, 33, 34, 35, 36, 37, 38, 39, 40]" complex_indices_1based="_JSON [1, 2, 3, 4, 5, 6, 7, 8, 9, 10, 11, 12, 13, 14, 15, 16, 17, 18, 19, 20, 21, 32, 33, 34, 35, 36, 37, 38, 39, 40, 41]" pbc="F F F"
Li       1.50709643       0.16965814       0.20604387  F        0        1
C        6.25931908       1.73394857       1.76866074  F        0        1
C        5.30156341       2.87996244       2.09932229  F        0        1
O        4.01274129       2.32309568       1.76889448  F        0        1