41
Properties=species:S:1:pos:R:3:is_solvent:L:1:group_label:I:1:tags:I:1 Coordinates=T from=T ORCA-job=T Li1EC4_r02_charge_1_spin_1_liquid_t_traj_1_frame_0000=T E=T -1378.044619375863=T solvent_indices_0based="_JSON [1, 2, 3, 4, 5, 6, 7, 8, 9, 10]" complex_indices_0based="_JSON [0, 11, 12, 13, 14, 15, 16, 17, 18, 19, 20, 21, 22, 23, 24, 25, 26, 27, 28, 29, 30, 31, 32, 33, 34, 35, 36, 37, 38, 39, 40]" complex_indices_1based="_JSON [1, 12, 13, 14, 15, 16, 17, 18, 19, 20, 21, 22, 23, 24, 25, 26, 27, 28, 29, 30, 31, 32, 33, 34, 35, 36, 37, 38, 39, 40, 41]" pbc="F F F"
Li      -0.09056985       0.30964625      -0.28048082  F        0        1
C        3.58566295       0.62962365       2.44331796  T        1        2
C        3.80018220       2.14256096       2.39572975  T        1        2
O        2.66985093       2.59941265       1.62954119  T        1        2
C        2.11870231       1.56332041       0.99692182  T        1        2
O        2.68034202       0.40498903       1.34727479  T        1        2
O        1.22339442       1.66597525       0.19936998  T        1        2
H        4.49155198       0.05341301       2.26720093  T        1        2
H        3.09914467       0.29509521       3.36075084  T        1        2
H        3.77002750       2.62048615       3.37262289  T        1        2
H        4.71009968       2.42830350       1.86585897  T        1        2
C        1.31746292      -0.30677548      -4.70501578  F        0        1
C        0.95917175      -1.79158093      -4.79562730  F        0        1
O        0.81200701      -2.17126917      -3.41510493  F        0        1
C        0.70974367      -1.07582491      -2.66307522  F        0        1
O        0.91548310       0.03855225      -3.36699132  F        0        1
O        0.46475613      -1.09486600      -1.48532746  F        0        1
H        2.38806614      -0.11956181      -4.79914231  F        0        1
H        0.76533255       0.31932678      -5.40285227  F        0        1
H        0.00978795      -1.97154214      -5.30181476  F        0        1
H        1.74139255      -2.40359631      -5.23996105  F        0        1
C       -3.05050024       4.33812746      -1.13316491  F        0        1
C       -2.34829131       4.29378798       0.22394003  F        0        1
O       -1.89898456       2.92830584       0.30165241  F        0        1
C       -1.92334166       2.38844389      -0.91880269  F        0        1
O       -2.50516719       3.19066307      -1.81014015  F        0        1
O       -1.47870189       1.30288915      -1.18577593  F        0        1
H       -4.13143467       4.20965352      -1.05875596  F        0        1
H       -2.81851113       5.22567917      -1.71805358  F        0        1
H       -1.47324646       4.94346965       0.27423248  F        0        1
H       -3.00932636       4.48831836       1.06587392  F        0        1
C       -2.80057661      -3.11344616       1.37103267  F        0        1
C       -1.98559878      -3.39502628       2.63534982  F        0        1
O       -1.17093609      -2.21476966       2.76245166  F        0        1
C       -1.19593714      -1.53348575       1.61738305  F        0        1
O       -2.06304692      -2.04827779       0.74427181  F        0        1
O       -0.51736549      -0.56358301       1.40166743  F        0        1
H       -2.84295155      -3.95460088       0.68218044  F        0        1
H       -3.80762499      -2.75222566       1.58404951  F        0        1
H       -2.59286652      -3.49300046       3.53284466  F        0        1
H       -1.32374507      -4.25613112       2.53451549  F        0        1
41
Properties=species:S:1:pos:R:3:is_solvent:L:1:group_label:I:1:tags:I:1 Coordinates=T from=T ORCA-job=T Li1EC4_r02_charge_1_spin_1_liquid_t_traj_1_frame_0000=T E=T -1378.044619375863=T solvent_indices_0based="_JSON [1, 2, 3, 4, 5, 6, 7, 8, 9, 10]" complex_indices_0based="_JSON [0, 11, 12, 13, 14, 15, 16, 17, 18, 19, 20, 21, 22, 23, 24, 25, 26, 27, 28, 29, 30, 31, 32, 33, 34, 35, 36, 37, 38, 39, 40]" complex_indices_1based="_JSON [1, 12, 13, 14, 15, 16, 17, 18, 19, 20, 21, 22, 23, 24, 25, 26, 27, 28, 29, 30, 31, 32, 33, 34, 35, 36, 37, 38, 39, 40, 41]" pbc="F F F"
Li      -0.09057000       0.30964600      -0.28048100  F        0        1
C        3.58566300       0.62962400       2.44331800  T        1        2
C        3.80018200       2.14256100       2.39573000  T        1        2
O        2.66985100       2.59941300       1.62954100  T        1        2
C        2.11870200       1.56332000       0.99692200  T        1        2
O        2.68034200       0.40498900       1.34727500  T        1        2
O        1.22339400       1.66597500       0.19937000  T        1        2
H        4.49155200       0.05341300       2.26720100  T        1        2
H        3.09914500       0.29509500       3.36075100  T        1        2
H        3.77002800       2.62048600       3.37262300  T        1        2
H        4.71010000       2.42830400       1.86585900  T        1        2
C        1.31746300      -0.30677500      -4.70501600  F        0        1
C        0.95917200      -1.79158100      -4.79562700  F        0        1
O        0.81200700      -2.17126900      -3.41510500  F        0        1
C        0.70974400      -1.07582500      -2.66307500  F        0        1
O        0.91548300       0.03855200      -3.36699100  F        0        1
O        0.46475600      -1.09486600      -1.48532700  F        0        1
H        2.38806600      -0.11956200      -4.79914200  F        0        1
H        0.76533300       0.31932700      -5.40285200  F        0        1
H        0.00978800      -1.97154200      -5.30181500  F        0        1
H        1.74139300      -2.40359600      -5.23996100  F        0        1
C       -3.05050000       4.33812700      -1.13316500  F        0        1
C       -2.34829100       4.29378800       0.22394000  F        0        1
O       -1.89898500       2.92830600       0.30165200  F        0        1
C       -1.92334200       2.38844400      -0.91880300  F        0        1
O       -2.50516700       3.19066300      -1.81014000  F        0        1
O       -1.47870200       1.30288900      -1.18577600  F        0        1
H       -4.13143500       4.20965400      -1.05875600  F        0        1
H       -2.81851100       5.22567900      -1.71805400  F        0        1
H       -1.47324600       4.94347000       0.27423200  F        0        1
H       -3.00932600       4.48831800       1.06587400  F        0        1
C       -2.80057700      -3.11344600       1.37103300  F        0        1
C       -1.98559900      -3.39502600       2.63535000  F        0        1
O       -1.17093600      -2.21477000       2.76245200  F        0        1
C       -1.19593700      -1.53348600       1.61738300  F        0        1
O       -2.06304700      -2.04827800       0.74427200  F        0        1
O       -0.51736500      -0.56358300       1.40166700  F        0        1
H       -2.84295200      -3.95460100       0.68218000  F        0        1
H       -3.80762500      -2.75222600       1.58405000  F        0        1
H       -2.59286700      -3.49300000       3.53284500  F        0        1
H       -1.32374500      -4.25613100       2.53451500  F        0        1
41
Properties=species:S:1:pos:R:3:is_solvent:L:1:group_label:I:1:tags:I:1 Coordinates=T from=T ORCA-job=T Li1EC4_r02_charge_1_spin_1_liquid_t_traj_1_frame_0001=T E=T -1378.038567443260=T solvent_indices_0based="_JSON [1, 2, 3, 4, 5, 6, 7, 8, 9, 10]" complex_indices_0based="_JSON [0, 11, 12, 13, 14, 15, 16, 17, 18, 19, 20, 21, 22, 23, 24, 25, 26, 27, 28, 29, 30, 31, 32, 33, 34, 35, 36, 37, 38, 39, 40]" complex_indices_1based="_JSON [1, 12, 13, 14, 15, 16, 17, 18, 19, 20, 21, 22, 23, 24, 25, 26, 27, 28, 29, 30, 31, 32, 33, 34, 35, 36, 37, 38, 39, 40, 41]" pbc="F F F"
Li      -0.77975970      -0.05159102      -0.34443279  F        0        1
C        4.03091359       0.75509435       0.35765538  T        1        2
C        3.94304062       1.88788568       1.37827973  T        1        2
O        2.53285578       2.16607497       1.42080052  T        1        2
C        1.93598822       1.63163444       0.35088874  T        1        2
O        2.80033289       0.89529183      -0.37459513  T        1        2
O        0.78325689       1.78759385       0.06690337  T        1        2
H        4.86198682       0.85638252      -0.33746907  T        1        2
H        4.04526223      -0.23315878       0.82027696  T        1        2
H        4.26779827       1.60306682       2.37679858  T        1        2
H        4.46294813       2.79220310       1.05783954  T        1        2
C        2.12541970       0.15976081      -3.86601509  F        0        1
C        2.80260237      -1.20079040      -3.70908781  F        0        1
O        2.29220770      -1.66284641      -2.44385321  F        0        1
C        1.21341089      -0.95013268      -2.12352642  F        0        1
O        1.00561525       0.05760979      -2.96901363  F        0        1
O        0.50542066      -1.19694583      -1.18016818  F        0        1
H        2.75281226       0.98794101      -3.53315624  F        0        1
H        1.74775723       0.35132781      -4.86798662  F        0        1
H        2.50769661      -1.91589841      -4.47841127  F        0        1
H        3.88726895      -1.14697586      -3.64449770  F        0        1
C       -2.75493768       4.42008120      -1.03969937  F        0        1
C       -2.37212803       4.02897357       0.38603896  F        0        1
O       -2.29053782       2.59428771       0.30126597  F        0        1
C       -2.15360182       2.24371844      -0.97809215  F        0        1
O       -2.33607784       3.27179005      -1.80323729  F        0        1
O       -1.89906537       1.12395319      -1.34373638  F        0        1
H       -3.83052971       4.54516066      -1.17364445  F        0        1
H       -2.22534005       5.29312553      -1.41458564  F        0        1
H       -1.39251264       4.40613380       0.68372154  F        0        1
H       -3.12149767       4.28870837       1.13044612  F        0        1
C       -3.64828337      -3.13233012       2.04176766  F        0        1
C       -2.77253776      -3.13831286       3.29531729  F        0        1
O       -1.91135186      -2.00204977       3.08905556  F        0        1
C       -1.96922687      -1.63096532       1.81256748  F        0        1
O       -2.89416438      -2.30808885       1.13140058  F        0        1
O       -1.26769000      -0.77937137       1.33154134  F        0        1
H       -3.77635654      -4.11371520       1.59022901  F        0        1
H       -4.61959485      -2.66243275       2.20163436  F        0        1
H       -3.32776581      -2.98481606       4.21815844  F        0        1
H       -2.14803683      -4.02896176       3.37629779  F        0        1
41
Properties=species:S:1:pos:R:3:is_solvent:L:1:group_label:I:1:tags:I:1 Coordinates=T from=T ORCA-job=T Li1EC4_r02_charge_1_spin_1_liquid_t_traj_1_frame_0001=T E=T -1378.038567443260=T solvent_indices_0based="_JSON [1, 2, 3, 4, 5, 6, 7, 8, 9, 10]" complex_indices_0based="_JSON [0, 11, 12, 13, 14, 15, 16, 17, 18, 19, 20, 21, 22, 23, 24, 25, 26, 27, 28, 29, 30, 31, 32, 33, 34, 35, 36, 37, 38, 39, 40]" complex_indices_1based="_JSON [1, 12, 13, 14, 15, 16, 17, 18, 19, 20, 21, 22, 23, 24, 25, 26, 27, 28, 29, 30, 31, 32, 33, 34, 35, 36, 37, 38, 39, 40, 41]" pbc="F F F"
Li      -0.77976000      -0.05159100      -0.34443300  F        0        1
C        4.03091400       0.75509400       0.35765500  T        1        2
C        3.94304100       1.88788600       1.37828000  T        1        2
O        2.53285600       2.16607500       1.42080100  T        1        2
C        1.93598800       1.63163400       0.35088900  T        1        2
O        2.80033300       0.89529200      -0.37459500  T        1        2
O        0.78325700       1.78759400       0.06690300  T        1        2
H        4.86198700       0.85638300      -0.33746900  T        1        2
H        4.04526200      -0.23315900       0.82027700  T        1        2
H        4.26779800       1.60306700       2.37679900  T        1        2
H        4.46294800       2.79220300       1.05784000  T        1        2
C        2.12542000       0.15976100      -3.86601500  F        0        1
C        2.80260200      -1.20079000      -3.70908800  F        0        1
O        2.29220800      -1.66284600      -2.44385300  F        0        1
C        1.21341100      -0.95013300      -2.12352600  F        0        1
O        1.00561500       0.05761000      -2.96901400  F        0        1
O        0.50542100      -1.19694600      -1.18016800  F        0        1
H        2.75281200       0.98794100      -3.53315600  F        0        1
H        1.74775700       0.35132800      -4.86798700  F        0        1
H        2.50769700      -1.91589800      -4.47841100  F        0        1
H        3.88726900      -1.14697600      -3.64449800  F        0        1
C       -2.75493800       4.42008100      -1.03969900  F        0        1
C       -2.37212800       4.02897400       0.38603900  F        0        1
O       -2.29053800       2.59428800       0.30126600  F        0        1
C       -2.15360200       2.24371800      -0.97809200  F        0        1
O       -2.33607800       3.27179000      -1.80323700  F        0        1
O       -1.89906500       1.12395300      -1.34373600  F        0        1
H       -3.83053000       4.54516100      -1.17364400  F        0        1
H       -2.22534000       5.29312600      -1.41458600  F        0        1
H       -1.39251300       4.40613400       0.68372200  F        0        1
H       -3.12149800       4.28870800       1.13044600  F        0        1
C       -3.64828300      -3.13233000       2.04176800  F        0        1
C       -2.77253800      -3.13831300       3.29531700  F        0        1
O       -1.91135200      -2.00205000       3.08905600  F        0        1
C       -1.96922700      -1.63096500       1.81256700  F        0        1
O       -2.89416400      -2.30808900       1.13140100  F        0        1
O       -1.26769000      -0.77937100       1.33154100  F        0        1
H       -3.77635700      -4.11371500       1.59022900  F        0        1
H       -4.61959500      -2.66243300       2.20163400  F        0        1
H       -3.32776600      -2.98481600       4.21815800  F        0        1
H       -2.14803700      -4.02896200       3.37629800  F        0        1
41
Properties=species:S:1:pos:R:3:is_solvent:L:1:group_label:I:1:tags:I:1 Coordinates=T from=T ORCA-job=T Li1EC4_r02_charge_1_spin_1_liquid_t_traj_1_frame_0002=T E=T -1378.037607802606=T solvent_indices_0based="_JSON [1, 2, 3, 4, 5, 6, 7, 8, 9, 10]" complex_indices_0based="_JSON [0, 11, 12, 13, 14, 15, 16, 17, 18, 19, 20, 21, 22, 23, 24, 25, 26, 27, 28, 29, 30, 31, 32, 33, 34, 35, 36, 37, 38, 39, 40]" complex_indices_1based="_JSON [1, 12, 13, 14, 15, 16, 17, 18, 19, 20, 21, 22, 23, 24, 25, 26, 27, 28, 29, 30, 31, 32, 33, 34, 35, 36, 37, 38, 39, 40, 41]" pbc="F F F"
Li      -0.47968233      -0.63712184      -0.50038559  F        0        1
C        3.73736714       0.59838173       0.43630717  T        1        2
C        3.09934774       0.68006666       1.82349251  T        1        2
O        1.75526061       1.09809960       1.53135937  T        1        2
C        1.68783143       1.56397357       0.28061014  T        1        2
O        2.85853987       1.40888597      -0.36761418  T        1        2
O        0.70888212       2.04590180      -0.21411644  T        1        2
H        4.73789523       1.02354537       0.39229662  T        1        2
H        3.73420451      -0.41397099       0.02970636  T        1        2
H        3.05659050      -0.27638063       2.34036832  T        1        2
H        3.56171460       1.43356390       2.46299746  T        1        2
C        2.14797492       1.00775211      -3.93211698  F        0        1
C        3.28252208      -0.01556967      -3.85061025  F        0        1
O        2.97277514      -0.73952419      -2.64158282  F        0        1
C        1.72756185      -0.45994804      -2.27269516  F        0        1
O        1.15522326       0.44657744      -3.05065767  F        0        1
O        1.18682706      -0.98332211      -1.32515231  F        0        1
H        2.42712423       1.98700753      -3.54195736  F        0        1
H        1.71044464       1.10273383      -4.92323826  F        0        1
H        3.28435384      -0.72547269      -4.67831944  F        0        1
H        4.26740489       0.43247091      -3.73651261  F        0        1
C       -2.24988251       3.82163074      -1.51378561  F        0        1
C       -2.20685101       3.53541454      -0.01312812  F        0        1
O       -2.28821368       2.09825792       0.03117812  F        0        1
C       -1.94159875       1.61358897      -1.15923893  F        0        1
O       -1.86452507       2.55711453      -2.08802945  F        0        1
O       -1.73723426       0.44253773      -1.37207705  F        0        1
H       -3.24862797       4.06927605      -1.87611174  F        0        1
H       -1.53349797       4.57444492      -1.83513042  F        0        1
H       -1.26314073       3.82993558       0.44598873  F        0        1
H       -3.05157830       3.94569657       0.53585883  F        0        1
C       -3.63318075      -2.16047909       2.74024191  F        0        1
C       -2.59719831      -2.44924626       3.82738465  F        0        1
O       -1.38834429      -1.89307034       3.27084452  F        0        1
C       -1.55989346      -1.68643207       1.96968523  F        0        1
O       -2.81297863      -1.90829760       1.58073681  F        0        1
O       -0.67425504      -1.34194044       1.22680800  F        0        1
H       -4.28692723      -3.00144972       2.52027886  F        0        1
H       -4.22237430      -1.26453419       2.93930042  F        0        1
H       -2.80094973      -1.94875189       4.77143033  F        0        1
H       -2.43515251      -3.51499385       3.99299095  F        0        1
41
Properties=species:S:1:pos:R:3:is_solvent:L:1:group_label:I:1:tags:I:1 Coordinates=T from=T ORCA-job=T Li1EC4_r02_charge_1_spin_1_liquid_t_traj_1_frame_0002=T E=T -1378.037607802606=T solvent_indices_0based="_JSON [1, 2, 3, 4, 5, 6, 7, 8, 9, 10]" complex_indices_0based="_JSON [0, 11, 12, 13, 14, 15, 16, 17, 18, 19, 20, 21, 22, 23, 24, 25, 26, 27, 28, 29, 30, 31, 32, 33, 34, 35, 36, 37, 38, 39, 40]" complex_indices_1based="_JSON [1, 12, 13, 14, 15, 16, 17, 18, 19, 20, 21, 22, 23, 24, 25, 26, 27, 28, 29, 30, 31, 32, 33, 34, 35, 36, 37, 38, 39, 40, 41]" pbc="F F F"
Li      -0.47968200      -0.63712200      -0.50038600  F        0        1
C        3.73736700       0.59838200       0.43630700  T        1        2
C        3.09934800       0.68006700       1.82349300  T        1        2
O        1.75526100       1.09810000       1.53135900  T        1        2
C        1.68783100       1.56397400       0.28061000  T        1        2
O        2.85854000       1.40888600      -0.36761400  T        1        2
O        0.70888200       2.04590200      -0.21411600  T        1        2
H        4.73789500       1.02354500       0.39229700  T        1        2
H        3.73420500      -0.41397100       0.02970600  T        1        2
H        3.05659000      -0.27638100       2.34036800  T        1        2
H        3.56171500       1.43356400       2.46299700  T        1        2
C        2.14797500       1.00775200      -3.93211700  F        0        1
C        3.28252200      -0.01557000      -3.85061000  F        0        1
O        2.97277500      -0.73952400      -2.64158300  F        0        1
C        1.72756200      -0.45994800      -2.27269500  F        0        1
O        1.15522300       0.44657700      -3.05065800  F        0        1
O        1.18682700      -0.98332200      -1.32515200  F        0        1
H        2.42712400       1.98700800      -3.54195700  F        0        1
H        1.71044500       1.10273400      -4.92323800  F        0        1
H        3.28435400      -0.72547300      -4.67831900  F        0        1
H        4.26740500       0.43247100      -3.73651300  F        0        1
C       -2.24988300       3.82163100      -1.51378600  F        0        1
C       -2.20685100       3.53541500      -0.01312800  F        0        1
O       -2.28821400       2.09825800       0.03117800  F        0        1
C       -1.94159900       1.61358900      -1.15923900  F        0        1
O       -1.86452500       2.55711500      -2.08802900  F        0        1
O       -1.73723400       0.44253800      -1.37207700  F        0        1
H       -3.24862800       4.06927600      -1.87611200  F        0        1
H       -1.53349800       4.57444500      -1.83513000  F        0        1
H       -1.26314100       3.82993600       0.44598900  F        0        1
H       -3.05157800       3.94569700       0.53585900  F        0        1
C       -3.63318100      -2.16047900       2.74024200  F        0        1
C       -2.59719800      -2.44924600       3.82738500  F        0        1
O       -1.38834400      -1.89307000       3.27084500  F        0        1
C       -1.55989300      -1.68643200       1.96968500  F        0        1
O       -2.81297900      -1.90829800       1.58073700  F        0        1
O       -0.67425500      -1.34194000       1.22680800  F        0        1
H       -4.28692700      -3.00145000       2.52027900  F        0        1
H       -4.22237400      -1.26453400       2.93930000  F        0        1
H       -2.80095000      -1.94875200       4.77143000  F        0        1
H       -2.43515300      -3.51499400       3.99299100  F        0        1
41
Properties=species:S:1:pos:R:3:is_solvent:L:1:group_label:I:1:tags:I:1 Coordinates=T from=T ORCA-job=T Li1EC4_r02_charge_1_spin_1_liquid_t_traj_1_frame_0003=T E=T -1378.036066208611=T solvent_indices_0based="_JSON [1, 2, 3, 4, 5, 6, 7, 8, 9, 10]" complex_indices_0based="_JSON [0, 11, 12, 13, 14, 15, 16, 17, 18, 19, 20, 21, 22, 23, 24, 25, 26, 27, 28, 29, 30, 31, 32, 33, 34, 35, 36, 37, 38, 39, 40]" complex_indices_1based="_JSON [1, 12, 13, 14, 15, 16, 17, 18, 19, 20, 21, 22, 23, 24, 25, 26, 27, 28, 29, 30, 31, 32, 33, 34, 35, 36, 37, 38, 39, 40, 41]" pbc="F F F"
Li      -1.20393855      -0.32399327       0.28747417  F        0        1
C        4.54397296       2.55570074      -1.06885320  T        1        2
C        4.07018248       3.94081004      -0.63031337  T        1        2
O        2.76066888       3.67755403      -0.10048967  T        1        2
C        2.33595465       2.46953833      -0.50671061  T        1        2
O        3.31852833       1.80813305      -1.15399278  T        1        2
O        1.24294407       2.02732029      -0.32552915  T        1        2
H        5.02581279       2.55115394      -2.04481232  T        1        2
H        5.18855288       2.07698532      -0.32959916  T        1        2
H        4.68047346       4.38073556       0.15582788  T        1        2
H        3.97218080       4.63986462      -1.46247653  T        1        2
C        2.18111339      -0.74391030      -3.03745130  F        0        1
C        3.23473930      -1.30924662      -2.08015216  F        0        1
O        2.56844066      -1.28535669      -0.80625644  F        0        1
C        1.27308958      -1.04899980      -0.98581125  F        0        1
O        0.97461496      -0.79340461      -2.25669585  F        0        1
O        0.46147356      -1.08717245      -0.09523985  F        0        1
H        2.36619075       0.29377730      -3.31140778  F        0        1
H        2.03576933      -1.35168565      -3.92850701  F        0        1
H        3.50657624      -2.34173450      -2.30246833  F        0        1
H        4.12845161      -0.69352627      -2.00871254  F        0        1
C       -1.18465229       4.66379696       0.09861544  F        0        1
C       -0.71927707       4.02871959       1.41110137  F        0        1
O       -1.18668415       2.67381621       1.29187410  F        0        1
C       -1.49100287       2.42703614       0.01968414  F        0        1
O       -1.47813782       3.52245303      -0.72843417  F        0        1
O       -1.76877293       1.33000793      -0.39921329  F        0        1
H       -2.09650445       5.25326865       0.20046461  F        0        1
H       -0.41054595       5.25078432      -0.39176228  F        0        1
H        0.36647065       4.00478857       1.50260782  F        0        1
H       -1.17056965       4.46940845       2.29757472  F        0        1
C       -4.27583818      -4.08271525       1.18683626  F        0        1
C       -4.24600685      -3.81513707       2.69256024  F        0        1
O       -3.62066648      -2.51918951       2.77462216  F        0        1
C       -3.03711580      -2.23726232       1.61473857  F        0        1
O       -3.30533130      -3.14596702       0.67766824  F        0        1
O       -2.34726664      -1.26716973       1.43254959  F        0        1
H       -3.95945477      -5.08704779       0.91359723  F        0        1
H       -5.23994924      -3.85434911       0.73090260  F        0        1
H       -5.23308138      -3.74805441       3.14485739  F        0        1
H       -3.62748562      -4.52544192       3.24246577  F        0        1
41
Properties=species:S:1:pos:R:3:is_solvent:L:1:group_label:I:1:tags:I:1 Coordinates=T from=T ORCA-job=T Li1EC4_r02_charge_1_spin_1_liquid_t_traj_1_frame_0003=T E=T -1378.036066208611=T solvent_indices_0based="_JSON [1, 2, 3, 4, 5, 6, 7, 8, 9, 10]" complex_indices_0based="_JSON [0, 11, 12, 13, 14, 15, 16, 17, 18, 19, 20, 21, 22, 23, 24, 25, 26, 27, 28, 29, 30, 31, 32, 33, 34, 35, 36, 37, 38, 39, 40]" complex_indices_1based="_JSON [1, 12, 13, 14, 15, 16, 17, 18, 19, 20, 21, 22, 23, 24, 25, 26, 27, 28, 29, 30, 31, 32, 33, 34, 35, 36, 37, 38, 39, 40, 41]" pbc="F F F"
Li      -1.20393900      -0.32399300       0.28747400  F        0        1
C        4.54397300       2.55570100      -1.06885300  T        1        2
C        4.07018200       3.94081000      -0.63031300  T        1        2
O        2.76066900       3.67755400      -0.10049000  T        1        2
C        2.33595500       2.46953800      -0.50671100  T        1        2
O        3.31852800       1.80813300      -1.15399300  T        1        2
O        1.24294400       2.02732000      -0.32552900  T        1        2
H        5.02581300       2.55115400      -2.04481200  T        1        2
H        5.18855300       2.07698500      -0.32959900  T        1        2
H        4.68047300       4.38073600       0.15582800  T        1        2
H        3.97218100       4.63986500      -1.46247700  T        1        2
C        2.18111300      -0.74391000      -3.03745100  F        0        1
C        3.23473900      -1.30924700      -2.08015200  F        0        1
O        2.56844100      -1.28535700      -0.80625600  F        0        1
C        1.27309000      -1.04900000      -0.98581100  F        0        1
O        0.97461500      -0.79340500      -2.25669600  F        0        1
O        0.46147400      -1.08717200      -0.09524000  F        0        1
H        2.36619100       0.29377700      -3.31140800  F        0        1
H        2.03576900      -1.35168600      -3.92850700  F        0        1
H        3.50657600      -2.34173400      -2.30246800  F        0        1
H        4.12845200      -0.69352600      -2.00871300  F        0        1
C       -1.18465200       4.66379700       0.09861500  F        0        1
C       -0.71927700       4.02872000       1.41110100  F        0        1
O       -1.18668400       2.67381600       1.29187400  F        0        1
C       -1.49100300       2.42703600       0.01968400  F        0        1
O       -1.47813800       3.52245300      -0.72843400  F        0        1
O       -1.76877300       1.33000800      -0.39921300  F        0        1
H       -2.09650400       5.25326900       0.20046500  F        0        1
H       -0.41054600       5.25078400      -0.39176200  F        0        1
H        0.36647100       4.00478900       1.50260800  F        0        1
H       -1.17057000       4.46940800       2.29757500  F        0        1
C       -4.27583800      -4.08271500       1.18683600  F        0        1
C       -4.24600700      -3.81513700       2.69256000  F        0        1
O       -3.62066600      -2.51919000       2.77462200  F        0        1
C       -3.03711600      -2.23726200       1.61473900  F        0        1
O       -3.30533100      -3.14596700       0.67766800  F        0        1
O       -2.34726700      -1.26717000       1.43255000  F        0        1
H       -3.95945500      -5.08704800       0.91359700  F        0        1
H       -5.23994900      -3.85434900       0.73090300  F        0        1
H       -5.23308100      -3.74805400       3.14485700  F        0        1
H       -3.62748600      -4.52544200       3.24246600  F        0        1
41
Properties=species:S:1:pos:R:3:is_solvent:L:1:group_label:I:1:tags:I:1 Coordinates=T from=T ORCA-job=T Li1EC4_r02_charge_1_spin_1_liquid_t_traj_1_frame_0004=T E=T -1378.038656487271=T solvent_indices_0based="_JSON [1, 2, 3, 4, 5, 6, 7, 8, 9, 10]" complex_indices_0based="_JSON [0, 11, 12, 13, 14, 15, 16, 17, 18, 19, 20, 21, 22, 23, 24, 25, 26, 27, 28, 29, 30, 31, 32, 33, 34, 35, 36, 37, 38, 39, 40]" complex_indices_1based="_JSON [1, 12, 13, 14, 15, 16, 17, 18, 19, 20, 21, 22, 23, 24, 25, 26, 27, 28, 29, 30, 31, 32, 33, 34, 35, 36, 37, 38, 39, 40, 41]" pbc="F F F"
Li      -1.34328402      -0.31906445       0.55525190  F        0        1
C        4.75365459       3.18008922      -1.55562669  T        1        2
C        4.00997926       4.39988745      -1.01602949  T        1        2