41
Properties=species:S:1:pos:R:3:is_solvent:L:1:group_label:I:1:tags:I:1 Coordinates=T from=T ORCA-job=T Li1EC4_r08_charge_1_spin_1_liquid_t_traj_3_frame_0000=T E=T -1378.044452502680=T solvent_indices_0based="_JSON [21, 22, 23, 24, 25, 26, 27, 28, 29, 30]" complex_indices_0based="_JSON [0, 1, 2, 3, 4, 5, 6, 7, 8, 9, 10, 11, 12, 13, 14, 15, 16, 17, 18, 19, 20, 31, 32, 33, 34, 35, 36, 37, 38, 39, 40]" complex_indices_1based="_JSON [1, 2, 3, 4, 5, 6, 7, 8, 9, 10, 11, 12, 13, 14, 15, 16, 17, 18, 19, 20, 21, 32, 33, 34, 35, 36, 37, 38, 39, 40, 41]" pbc="F F F"
Li       0.17687151      -0.23111651       0.15872159  F        0        1
C        4.58084485      -1.18561860       2.48143380  F        0        1
C        4.33235773       0.30033568       2.22026058  F        0        1
O        3.05256094       0.29864451       1.56160203  F        0        1
C        2.76566700      -0.93873295       1.15249705  F        0        1
O        3.66619476      -1.82741900       1.57384438  F        0        1
O        1.81098275      -1.22293693       0.47781525  F        0        1
H        5.59054299      -1.51022513       2.23885968  F        0        1
H        4.32264438      -1.48820404       3.49721003  F        0        1
H        4.25154490       0.89561502       3.12738366  F        0        1
H        5.06444244       0.74371040       1.54382893  F        0        1
C       -1.90922966      -4.80910225      -0.57384401  F        0        1
C       -1.04335297      -4.65473774       0.67607889  F        0        1
O       -0.87958713      -3.22826273       0.77234670  F        0        1
C       -1.19280554      -2.66963559      -0.39887736  F        0        1
O       -1.71776291      -3.55206298      -1.24958301  F        0        1
O       -1.02764756      -1.50649631      -0.65810278  F        0        1
H       -1.58386327      -5.60847731      -1.23621968  F        0        1
H       -2.97101323      -4.91733772      -0.34760331  F        0        1
H       -1.52046210      -5.00907354       1.58735373  F        0        1
H       -0.05559927      -5.10534814       0.56801036  F        0        1
C       -3.07526751       2.51811897       2.08553710  T        1        2
C       -2.28538335       2.88892683       3.34122000  T        1        2
O       -1.25911532       1.88079793       3.38276928  T        1        2
C       -1.18263557       1.27858988       2.19525316  T        1        2
O       -2.15940268       1.66744124       1.37236529  T        1        2
O       -0.33472785       0.47593759       1.90639719  T        1        2
H       -3.97733094       1.94415931       2.30251397  T        1        2
H       -3.31656123       3.37025987       1.45352999  T        1        2
H       -1.80315741       3.86475657       3.26799973  T        1        2
H       -2.86664951       2.82634662       4.25876700  T        1        2
C        0.79325620       0.85556561      -4.38128062  F        0        1
C        0.08710290       2.21023820      -4.31473223  F        0        1
O        0.06363301       2.49008657      -2.90278698  F        0        1
C        0.32329671       1.37060350      -2.22646743  F        0        1
O        0.67198796       0.36645924      -3.03309241  F        0        1
O        0.25514631       1.28195939      -1.02882714  F        0        1
H        0.31223423       0.14464118      -5.04982677  F        0        1
H        1.85432880       0.93812149      -4.62089239  F        0        1
H        0.62750102       3.01113661      -4.81497919  F        0        1
H       -0.94276591       2.17174172      -4.67239069  F        0        1
41
Properties=species:S:1:pos:R:3:is_solvent:L:1:group_label:I:1:tags:I:1 Coordinates=T from=T ORCA-job=T Li1EC4_r08_charge_1_spin_1_liquid_t_traj_3_frame_0000=T E=T -1378.044452502680=T solvent_indices_0based="_JSON [21, 22, 23, 24, 25, 26, 27, 28, 29, 30]" complex_indices_0based="_JSON [0, 1, 2, 3, 4, 5, 6, 7, 8, 9, 10, 11, 12, 13, 14, 15, 16, 17, 18, 19, 20, 31, 32, 33, 34, 35, 36, 37, 38, 39, 40]" complex_indices_1based="_JSON [1, 2, 3, 4, 5, 6, 7, 8, 9, 10, 11, 12, 13, 14, 15, 16, 17, 18, 19, 20, 21, 32, 33, 34, 35, 36, 37, 38, 39, 40, 41]" pbc="F F F"
Li       0.17687200      -0.23111700       0.15872200  F        0        1
C        4.58084500      -1.18561900       2.48143400  F        0        1
C        4.33235800       0.30033600       2.22026100  F        0        1
O        3.05256100       0.29864500       1.56160200  F        0        1
C        2.76566700      -0.93873300       1.15249700  F        0        1
O        3.66619500      -1.82741900       1.57384400  F        0        1
O        1.81098300      -1.22293700       0.47781500  F        0        1
H        5.59054300      -1.51022500       2.23886000  F        0        1
H        4.32264400      -1.48820400       3.49721000  F        0        1
H        4.25154500       0.89561500       3.12738400  F        0        1
H        5.06444200       0.74371000       1.54382900  F        0        1
C       -1.90923000      -4.80910200      -0.57384400  F        0        1
C       -1.04335300      -4.65473800       0.67607900  F        0        1
O       -0.87958700      -3.22826300       0.77234700  F        0        1
C       -1.19280600      -2.66963600      -0.39887700  F        0        1
O       -1.71776300      -3.55206300      -1.24958300  F        0        1
O       -1.02764800      -1.50649600      -0.65810300  F        0        1
H       -1.58386300      -5.60847700      -1.23622000  F        0        1
H       -2.97101300      -4.91733800      -0.34760300  F        0        1
H       -1.52046200      -5.00907400       1.58735400  F        0        1
H       -0.05559900      -5.10534800       0.56801000  F        0        1
C       -3.07526800       2.51811900       2.08553700  T        1        2
C       -2.28538300       2.88892700       3.34122000  T        1        2
O       -1.25911500       1.88079800       3.38276900  T        1        2
C       -1.18263600       1.27859000       2.19525300  T        1        2
O       -2.15940300       1.66744100       1.37236500  T        1        2
O       -0.33472800       0.47593800       1.90639700  T        1        2
H       -3.97733100       1.94415900       2.30251400  T        1        2
H       -3.31656100       3.37026000       1.45353000  T        1        2
H       -1.80315700       3.86475700       3.26800000  T        1        2
H       -2.86665000       2.82634700       4.25876700  T        1        2
C        0.79325600       0.85556600      -4.38128100  F        0        1
C        0.08710300       2.21023800      -4.31473200  F        0        1
O        0.06363300       2.49008700      -2.90278700  F        0        1
C        0.32329700       1.37060400      -2.22646700  F        0        1
O        0.67198800       0.36645900      -3.03309200  F        0        1
O        0.25514600       1.28195900      -1.02882700  F        0        1
H        0.31223400       0.14464100      -5.04982700  F        0        1
H        1.85432900       0.93812100      -4.62089200  F        0        1
H        0.62750100       3.01113700      -4.81497900  F        0        1
H       -0.94276600       2.17174200      -4.67239100  F        0        1
41
Properties=species:S:1:pos:R:3:is_solvent:L:1:group_label:I:1:tags:I:1 Coordinates=T from=T ORCA-job=T Li1EC4_r08_charge_1_spin_1_liquid_t_traj_3_frame_0001=T E=T -1378.038977579894=T solvent_indices_0based="_JSON [21, 22, 23, 24, 25, 26, 27, 28, 29, 30]" complex_indices_0based="_JSON [0, 1, 2, 3, 4, 5, 6, 7, 8, 9, 10, 11, 12, 13, 14, 15, 16, 17, 18, 19, 20, 31, 32, 33, 34, 35, 36, 37, 38, 39, 40]" complex_indices_1based="_JSON [1, 2, 3, 4, 5, 6, 7, 8, 9, 10, 11, 12, 13, 14, 15, 16, 17, 18, 19, 20, 21, 32, 33, 34, 35, 36, 37, 38, 39, 40, 41]" pbc="F F F"
Li       0.10403081      -0.41988181      -0.35993505  F        0        1
C        3.27204674      -1.06687204       2.99956896  F        0        1
C        3.92348347       0.04826957       2.17984394  F        0        1
O        3.17647031       0.02058478       0.95003395  F        0        1
C        2.43336411      -1.08146065       0.90452280  F        0        1
O        2.55689825      -1.82100844       2.00315801  F        0        1
O        1.73440936      -1.38153264      -0.03278013  F        0        1
H        3.98599321      -1.72873264       3.48522978  F        0        1
H        2.54590156      -0.68993530       3.72018374  F        0        1
H        3.81090707       1.03402799       2.62648504  F        0        1
H        4.97141769      -0.14380714       1.94635349  F        0        1
C       -2.07797047      -4.93818902      -0.01638117  F        0        1
C       -1.16193422      -4.55675935       1.14661680  F        0        1
O       -1.01657830      -3.13371168       0.97962327  F        0        1
C       -1.38949910      -2.79803814      -0.25524060  F        0        1
O       -1.94028879      -3.81644294      -0.90984576  F        0        1
O       -1.25043109      -1.69674560      -0.72511964  F        0        1
H       -1.76647122      -5.83713143      -0.54387242  F        0        1
H       -3.12678162      -5.01647584       0.27323290  F        0        1
H       -1.59557308      -4.74638057       2.12614121  F        0        1
H       -0.17183559      -5.00955166       1.07837873  F        0        1
C       -2.57129000       2.26302621       2.32039855  T        1        2
C       -1.59829185       2.93293304       3.29154476  T        1        2
O       -0.48103315       2.02568112       3.30231649  T        1        2
C       -0.56864720       1.20176024       2.25353311  T        1        2
O       -1.72501735       1.35121252       1.59852294  T        1        2
O        0.28574358       0.41849394       1.93867365  T        1        2
H       -3.34596671       1.68478118       2.82622250  T        1        2
H       -3.02239123       2.95148690       1.60883025  T        1        2
H       -1.24675977       3.90415309       2.94036679  T        1        2
H       -1.98313739       3.01847350       4.30565218  T        1        2
C        0.94141393       1.41786432      -4.53878175  F        0        1
C        0.29300406       2.78286861      -4.30172390  F        0        1
O        0.10223829       2.80383026      -2.87317174  F        0        1
C        0.23717424       1.57101878      -2.39275148  F        0        1
O        0.63500458       0.70534987      -3.32425651  F        0        1
O        0.02391824       1.27286140      -1.24438162  F        0        1
H        0.51463802       0.86931092      -5.37564963  F        0        1
H        2.02631241       1.47090161      -4.63740309  F        0        1
H        0.92881063       3.62228345      -4.57489559  F        0        1
H       -0.68400308       2.88082594      -4.77645790  F        0        1
41
Properties=species:S:1:pos:R:3:is_solvent:L:1:group_label:I:1:tags:I:1 Coordinates=T from=T ORCA-job=T Li1EC4_r08_charge_1_spin_1_liquid_t_traj_3_frame_0001=T E=T -1378.038977579894=T solvent_indices_0based="_JSON [21, 22, 23, 24, 25, 26, 27, 28, 29, 30]" complex_indices_0based="_JSON [0, 1, 2, 3, 4, 5, 6, 7, 8, 9, 10, 11, 12, 13, 14, 15, 16, 17, 18, 19, 20, 31, 32, 33, 34, 35, 36, 37, 38, 39, 40]" complex_indices_1based="_JSON [1, 2, 3, 4, 5, 6, 7, 8, 9, 10, 11, 12, 13, 14, 15, 16, 17, 18, 19, 20, 21, 32, 33, 34, 35, 36, 37, 38, 39, 40, 41]" pbc="F F F"
Li       0.10403100      -0.41988200      -0.35993500  F        0        1
C        3.27204700      -1.06687200       2.99956900  F        0        1
C        3.92348300       0.04827000       2.17984400  F        0        1
O        3.17647000       0.02058500       0.95003400  F        0        1
C        2.43336400      -1.08146100       0.90452300  F        0        1
O        2.55689800      -1.82100800       2.00315800  F        0        1
O        1.73440900      -1.38153300      -0.03278000  F        0        1
H        3.98599300      -1.72873300       3.48523000  F        0        1
H        2.54590200      -0.68993500       3.72018400  F        0        1
H        3.81090700       1.03402800       2.62648500  F        0        1
H        4.97141800      -0.14380700       1.94635300  F        0        1
C       -2.07797000      -4.93818900      -0.01638100  F        0        1
C       -1.16193400      -4.55675900       1.14661700  F        0        1
O       -1.01657800      -3.13371200       0.97962300  F        0        1
C       -1.38949900      -2.79803800      -0.25524100  F        0        1
O       -1.94028900      -3.81644300      -0.90984600  F        0        1
O       -1.25043100      -1.69674600      -0.72512000  F        0        1
H       -1.76647100      -5.83713100      -0.54387200  F        0        1
H       -3.12678200      -5.01647600       0.27323300  F        0        1
H       -1.59557300      -4.74638100       2.12614100  F        0        1
H       -0.17183600      -5.00955200       1.07837900  F        0        1
C       -2.57129000       2.26302600       2.32039900  T        1        2
C       -1.59829200       2.93293300       3.29154500  T        1        2
O       -0.48103300       2.02568100       3.30231600  T        1        2
C       -0.56864700       1.20176000       2.25353300  T        1        2
O       -1.72501700       1.35121300       1.59852300  T        1        2
O        0.28574400       0.41849400       1.93867400  T        1        2
H       -3.34596700       1.68478100       2.82622300  T        1        2
H       -3.02239100       2.95148700       1.60883000  T        1        2
H       -1.24676000       3.90415300       2.94036700  T        1        2
H       -1.98313700       3.01847400       4.30565200  T        1        2
C        0.94141400       1.41786400      -4.53878200  F        0        1
C        0.29300400       2.78286900      -4.30172400  F        0        1
O        0.10223800       2.80383000      -2.87317200  F        0        1
C        0.23717400       1.57101900      -2.39275100  F        0        1
O        0.63500500       0.70535000      -3.32425700  F        0        1
O        0.02391800       1.27286100      -1.24438200  F        0        1
H        0.51463800       0.86931100      -5.37565000  F        0        1
H        2.02631200       1.47090200      -4.63740300  F        0        1
H        0.92881100       3.62228300      -4.57489600  F        0        1
H       -0.68400300       2.88082600      -4.77645800  F        0        1
41
Properties=species:S:1:pos:R:3:is_solvent:L:1:group_label:I:1:tags:I:1 Coordinates=T from=T ORCA-job=T Li1EC4_r08_charge_1_spin_1_liquid_t_traj_3_frame_0002=T E=T -1378.039546717242=T solvent_indices_0based="_JSON [21, 22, 23, 24, 25, 26, 27, 28, 29, 30]" complex_indices_0based="_JSON [0, 1, 2, 3, 4, 5, 6, 7, 8, 9, 10, 11, 12, 13, 14, 15, 16, 17, 18, 19, 20, 31, 32, 33, 34, 35, 36, 37, 38, 39, 40]" complex_indices_1based="_JSON [1, 2, 3, 4, 5, 6, 7, 8, 9, 10, 11, 12, 13, 14, 15, 16, 17, 18, 19, 20, 21, 32, 33, 34, 35, 36, 37, 38, 39, 40, 41]" pbc="F F F"
Li      -0.19143369       0.24275020      -0.17178373  F        0        1
C        3.17286364      -1.79760383       2.82438977  F        0        1
C        3.68979505      -0.40826476       2.49989495  F        0        1
O        3.12729616      -0.15292894       1.18355862  F        0        1
C        2.13778221      -0.99462316       0.96770428  F        0        1
O        2.11167410      -1.98649184       1.86125291  F        0        1
O        1.34974044      -0.90816692       0.06355195  F        0        1
H        3.93014213      -2.56764247       2.66398105  F        0        1
H        2.74471770      -1.87010947       3.82191707  F        0        1
H        3.31008663       0.36116479       3.17311847  F        0        1
H        4.77439033      -0.36052176       2.41840207  F        0        1
C       -1.98677559      -4.21204904       0.56772674  F        0        1
C       -1.24869893      -3.51153691       1.70774940  F        0        1
O       -1.36010592      -2.11943910       1.33991234  F        0        1
C       -1.62063808      -2.05304996       0.02493305  F        0        1
O       -1.91480888      -3.24039032      -0.49335301  F        0        1
O       -1.59279032      -1.02574724      -0.60222525  F        0        1
H       -1.50783349      -5.12594220       0.22807489  F        0        1
H       -3.03944991      -4.39292871       0.78796032  F        0        1
H       -1.71787478      -3.64378800       2.67911544  F        0        1
H       -0.18501446      -3.76280086       1.75388339  F        0        1
C       -2.35433211       1.64089838       1.83517278  T        1        2
C       -2.13127256       2.20405943       3.23338126  T        1        2
O       -0.94428354       1.50475827       3.67895101  T        1        2
C       -0.30183779       1.01370192       2.62685660  T        1        2
O       -1.04246946       1.15515046       1.50165481  T        1        2
O        0.78169693       0.50631208       2.60427698  T        1        2
H       -3.04609800       0.79991158       1.81239913  T        1        2
H       -2.64534450       2.39077540       1.10468193  T        1        2
H       -1.90776370       3.27057534       3.22396832  T        1        2
H       -2.94051809       1.98950319       3.93025932  T        1        2
C        1.05375962       1.50963006      -4.53896753  F        0        1
C        0.63095883       2.97869635      -4.42939712  F        0        1
O        0.32478576       3.12474160      -3.02855874  F        0        1
C        0.24665442       1.92132662      -2.46441883  F        0        1
O        0.57569108       0.94164524      -3.30390703  F        0        1
O       -0.09174740       1.74319582      -1.32210473  F        0        1
H        0.57819824       0.98149564      -5.35741181  F        0        1
H        2.13326800       1.37557454      -4.58040345  F        0        1
H        1.42556000       3.68097456      -4.68234633  F        0        1
H       -0.26823179       3.20646219      -4.99237297  F        0        1
41
Properties=species:S:1:pos:R:3:is_solvent:L:1:group_label:I:1:tags:I:1 Coordinates=T from=T ORCA-job=T Li1EC4_r08_charge_1_spin_1_liquid_t_traj_3_frame_0002=T E=T -1378.039546717242=T solvent_indices_0based="_JSON [21, 22, 23, 24, 25, 26, 27, 28, 29, 30]" complex_indices_0based="_JSON [0, 1, 2, 3, 4, 5, 6, 7, 8, 9, 10, 11, 12, 13, 14, 15, 16, 17, 18, 19, 20, 31, 32, 33, 34, 35, 36, 37, 38, 39, 40]" complex_indices_1based="_JSON [1, 2, 3, 4, 5, 6, 7, 8, 9, 10, 11, 12, 13, 14, 15, 16, 17, 18, 19, 20, 21, 32, 33, 34, 35, 36, 37, 38, 39, 40, 41]" pbc="F F F"
Li      -0.19143400       0.24275000      -0.17178400  F        0        1
C        3.17286400      -1.79760400       2.82439000  F        0        1
C        3.68979500      -0.40826500       2.49989500  F        0        1
O        3.12729600      -0.15292900       1.18355900  F        0        1
C        2.13778200      -0.99462300       0.96770400  F        0        1
O        2.11167400      -1.98649200       1.86125300  F        0        1
O        1.34974000      -0.90816700       0.06355200  F        0        1
H        3.93014200      -2.56764200       2.66398100  F        0        1
H        2.74471800      -1.87010900       3.82191700  F        0        1
H        3.31008700       0.36116500       3.17311800  F        0        1
H        4.77439000      -0.36052200       2.41840200  F        0        1
C       -1.98677600      -4.21204900       0.56772700  F        0        1
C       -1.24869900      -3.51153700       1.70774900  F        0        1
O       -1.36010600      -2.11943900       1.33991200  F        0        1
C       -1.62063800      -2.05305000       0.02493300  F        0        1
O       -1.91480900      -3.24039000      -0.49335300  F        0        1
O       -1.59279000      -1.02574700      -0.60222500  F        0        1
H       -1.50783300      -5.12594200       0.22807500  F        0        1
H       -3.03945000      -4.39292900       0.78796000  F        0        1
H       -1.71787500      -3.64378800       2.67911500  F        0        1
H       -0.18501400      -3.76280100       1.75388300  F        0        1
C       -2.35433200       1.64089800       1.83517300  T        1        2
C       -2.13127300       2.20405900       3.23338100  T        1        2
O       -0.94428400       1.50475800       3.67895100  T        1        2
C       -0.30183800       1.01370200       2.62685700  T        1        2
O       -1.04246900       1.15515000       1.50165500  T        1        2
O        0.78169700       0.50631200       2.60427700  T        1        2
H       -3.04609800       0.79991200       1.81239900  T        1        2
H       -2.64534500       2.39077500       1.10468200  T        1        2
H       -1.90776400       3.27057500       3.22396800  T        1        2
H       -2.94051800       1.98950300       3.93025900  T        1        2
C        1.05376000       1.50963000      -4.53896800  F        0        1
C        0.63095900       2.97869600      -4.42939700  F        0        1
O        0.32478600       3.12474200      -3.02855900  F        0        1
C        0.24665400       1.92132700      -2.46441900  F        0        1
O        0.57569100       0.94164500      -3.30390700  F        0        1
O       -0.09174700       1.74319600      -1.32210500  F        0        1
H        0.57819800       0.98149600      -5.35741200  F        0        1
H        2.13326800       1.37557500      -4.58040300  F        0        1
H        1.42556000       3.68097500      -4.68234600  F        0        1
H       -0.26823200       3.20646200      -4.99237300  F        0        1
41
Properties=species:S:1:pos:R:3:is_solvent:L:1:group_label:I:1:tags:I:1 Coordinates=T from=T ORCA-job=T Li1EC4_r08_charge_1_spin_1_liquid_t_traj_3_frame_0003=T E=T -1378.032563166651=T solvent_indices_0based="_JSON [21, 22, 23, 24, 25, 26, 27, 28, 29, 30]" complex_indices_0based="_JSON [0, 1, 2, 3, 4, 5, 6, 7, 8, 9, 10, 11, 12, 13, 14, 15, 16, 17, 18, 19, 20, 31, 32, 33, 34, 35, 36, 37, 38, 39, 40]" complex_indices_1based="_JSON [1, 2, 3, 4, 5, 6, 7, 8, 9, 10, 11, 12, 13, 14, 15, 16, 17, 18, 19, 20, 21, 32, 33, 34, 35, 36, 37, 38, 39, 40, 41]" pbc="F F F"
Li       0.59504458      -0.26057107      -1.03832903  F        0        1
C        2.99385605      -0.13391972       3.28484639  F        0        1
C        3.13271398       1.18171386       2.50517238  F        0        1
O        2.76866024       0.81390955       1.16402295  F        0        1
C        2.31498287      -0.43291351       1.14728037  F        0        1
O        2.46233530      -1.04985475       2.31041996  F        0        1
O        1.83903626      -0.95821152       0.16796369  F        0        1
H        3.94472052      -0.53057913       3.63951984  F        0        1
H        2.28171535      -0.06587928       4.10552472  F        0        1
H        2.43753914       1.94791869       2.84348209  F        0        1
H        4.15006258       1.56932611       2.48628352  F        0        1
C       -3.20459324      -3.37322046       0.44558077  F        0        1
C       -1.99591894      -3.38655176       1.38203880  F        0        1
O       -1.21982344      -2.26816024       0.91366442  F        0        1
C       -1.63611708      -1.92938886      -0.30662981  F        0        1
O       -2.73500602      -2.58852726      -0.66515535  F        0        1
O       -1.08656177      -1.12315398      -1.01270156  F        0        1
H       -3.48453780      -4.35801486       0.07757949  F        0        1
H       -4.07349731      -2.87170084       0.87462421  F        0        1
H       -2.24964536      -3.21820818       2.42689203  F        0        1
H       -1.38870370      -4.28767642       1.28585772  F        0        1
C       -2.85991687       0.57307093       4.07065534  T        1        2
C       -1.79114395       0.90979297       5.11049826  T        1        2
O       -0.56868291       0.72354647       4.38003581  T        1        2
C       -0.83164204       0.73238583       3.05869678  T        1        2
O       -2.15452346       0.71094087       2.82722414  T        1        2
O        0.00653346       0.75663636       2.20903469  T        1        2
H       -3.22034996      -0.45475239       4.15241919  T        1        2
H       -3.70229184       1.26208252       4.07168959  T        1        2
H       -1.84092981       1.94729520       5.44561603  T        1        2
H       -1.79066647       0.24096678       5.96899201  T        1        2
C        1.82800213       1.04821108      -5.64833739  F        0        1
C        1.50531503       2.51774511      -5.37085738  F        0        1
O        1.33994996       2.54417208      -3.93953976  F        0        1
C        1.19963968       1.30209817      -3.48934121  F        0        1
O        1.38464858       0.39193484      -4.44354999  F        0        1
O        0.93412543       1.03356125      -2.34559824  F        0        1
H        1.27933740       0.62902370      -6.48893001  F        0        1
H        2.89595849       0.85935804      -5.76395895  F        0        1
H        2.31052632       3.19946801      -5.63622933  F        0        1
H        0.57004578       2.84533987      -5.82628640  F        0        1
41
Properties=species:S:1:pos:R:3:is_solvent:L:1:group_label:I:1:tags:I:1 Coordinates=T from=T ORCA-job=T Li1EC4_r08_charge_1_spin_1_liquid_t_traj_3_frame_0003=T E=T -1378.032563166651=T solvent_indices_0based="_JSON [21, 22, 23, 24, 25, 26, 27, 28, 29, 30]" complex_indices_0based="_JSON [0, 1, 2, 3, 4, 5, 6, 7, 8, 9, 10, 11, 12, 13, 14, 15, 16, 17, 18, 19, 20, 31, 32, 33, 34, 35, 36, 37, 38, 39, 40]" complex_indices_1based="_JSON [1, 2, 3, 4, 5, 6, 7, 8, 9, 10, 11, 12, 13, 14, 15, 16, 17, 18, 19, 20, 21, 32, 33, 34, 35, 36, 37, 38, 39, 40, 41]" pbc="F F F"
Li       0.59504500      -0.26057100      -1.03832900  F        0        1
C        2.99385600      -0.13392000       3.28484600  F        0        1
C        3.13271400       1.18171400       2.50517200  F        0        1
O        2.76866000       0.81391000       1.16402300  F        0        1
C        2.31498300      -0.43291400       1.14728000  F        0        1
O        2.46233500      -1.04985500       2.31042000  F        0        1
O        1.83903600      -0.95821200       0.16796400  F        0        1
H        3.94472100      -0.53057900       3.63952000  F        0        1
H        2.28171500      -0.06587900       4.10552500  F        0        1
H        2.43753900       1.94791900       2.84348200  F        0        1
H        4.15006300       1.56932600       2.48628400  F        0        1
C       -3.20459300      -3.37322000       0.44558100  F        0        1
C       -1.99591900      -3.38655200       1.38203900  F        0        1
O       -1.21982300      -2.26816000       0.91366400  F        0        1
C       -1.63611700      -1.92938900      -0.30663000  F        0        1
O       -2.73500600      -2.58852700      -0.66515500  F        0        1
O       -1.08656200      -1.12315400      -1.01270200  F        0        1
H       -3.48453800      -4.35801500       0.07757900  F        0        1
H       -4.07349700      -2.87170100       0.87462400  F        0        1
H       -2.24964500      -3.21820800       2.42689200  F        0        1
H       -1.38870400      -4.28767600       1.28585800  F        0        1
C       -2.85991700       0.57307100       4.07065500  T        1        2
C       -1.79114400       0.90979300       5.11049800  T        1        2
O       -0.56868300       0.72354600       4.38003600  T        1        2
C       -0.83164200       0.73238600       3.05869700  T        1        2
O       -2.15452300       0.71094100       2.82722400  T        1        2
O        0.00653300       0.75663600       2.20903500  T        1        2
H       -3.22035000      -0.45475200       4.15241900  T        1        2
H       -3.70229200       1.26208300       4.07169000  T        1        2
H       -1.84093000       1.94729500       5.44561600  T        1        2
H       -1.79066600       0.24096700       5.96899200  T        1        2
C        1.82800200       1.04821100      -5.64833700  F        0        1
C        1.50531500       2.51774500      -5.37085700  F        0        1
O        1.33995000       2.54417200      -3.93954000  F        0        1
C        1.19964000       1.30209800      -3.48934100  F        0        1
O        1.38464900       0.39193500      -4.44355000  F        0        1
O        0.93412500       1.03356100      -2.34559800  F        0        1
H        1.27933700       0.62902400      -6.48893000  F        0        1
H        2.89595800       0.85935800      -5.76395900  F        0        1
H        2.31052600       3.19946800      -5.63622900  F        0        1
H        0.57004600       2.84534000      -5.82628600  F        0        1
41
Properties=species:S:1:pos:R:3:is_solvent:L:1:group_label:I:1:tags:I:1 Coordinates=T from=T ORCA-job=T Li1EC4_r08_charge_1_spin_1_liquid_t_traj_3_frame_0004=T E=T -1378.039321824580=T solvent_indices_0based="_JSON [21, 22, 23, 24, 25, 26, 27, 28, 29, 30]" complex_indices_0based="_JSON [0, 1, 2, 3, 4, 5, 6, 7, 8, 9, 10, 11, 12, 13, 14, 15, 16, 17, 18, 19, 20, 31, 32, 33, 34, 35, 36, 37, 38, 39, 40]" complex_indices_1based="_JSON [1, 2, 3, 4, 5, 6, 7, 8, 9, 10, 11, 12, 13, 14, 15, 16, 17, 18, 19, 20, 21, 32, 33, 34, 35, 36, 37, 38, 39, 40, 41]" pbc="F F F"
Li       0.88187348       0.42202722      -0.96318928  F        0        1
C        1.52228046       2.45967800       3.47766553  F        0        1
C        0.50727633       3.07678136       2.51580423  F        0        1
O        0.80189218       2.40160622       1.27747859  F        0        1