41
Properties=species:S:1:pos:R:3:is_solvent:L:1:group_label:I:1:tags:I:1 Coordinates=T from=T ORCA-job=T Li1EC4_r04_charge_1_spin_1_liquid_t_traj_4_frame_0000=T E=T -1378.044545267269=T solvent_indices_0based="_JSON [31, 32, 33, 34, 35, 36, 37, 38, 39, 40]" complex_indices_0based="_JSON [0, 1, 2, 3, 4, 5, 6, 7, 8, 9, 10, 11, 12, 13, 14, 15, 16, 17, 18, 19, 20, 21, 22, 23, 24, 25, 26, 27, 28, 29, 30]" complex_indices_1based="_JSON [1, 2, 3, 4, 5, 6, 7, 8, 9, 10, 11, 12, 13, 14, 15, 16, 17, 18, 19, 20, 21, 22, 23, 24, 25, 26, 27, 28, 29, 30, 31]" pbc="F F F"
Li       1.00891389       0.12781684       0.36163315  F        0        1
C        4.52238541       1.78047291      -2.07820528  F        0        1
C        5.08840650       2.74555300      -1.03683650  F        0        1
O        4.22770082       2.52790167       0.09737759  F        0        1
C        3.12863117       1.88697943      -0.29993494  F        0        1
O        3.19591729       1.52406389      -1.58273839  F        0        1
O        2.18515234       1.66883632       0.41436189  F        0        1
H        4.44148685       2.21004513      -3.07448401  F        0        1
H        5.06058281       0.83229003      -2.11798121  F        0        1
H        6.11044080       2.51992928      -0.74010527  F        0        1
H        5.00422653       3.79216603      -1.33296649  F        0        1
C       -2.93942057       2.37392702      -0.67266920  F        0        1
C       -3.50932911       1.34107343      -1.64611925  F        0        1
O       -2.36699686       0.51723233      -1.94409347  F        0        1
C       -1.41203580       0.74272354      -1.04199701  F        0        1
O       -1.72036842       1.75264250      -0.22576199  F        0        1
O       -0.39109903       0.10948122      -0.97675251  F        0        1
H       -2.68469516       3.31932841      -1.15371520  F        0        1
H       -3.57212117       2.55325279       0.19408990  F        0        1
H       -4.27724585       0.70980715      -1.19693378  F        0        1
H       -3.87534237       1.77141899      -2.57594433  F        0        1
C        0.82213393       0.43224573       5.44050385  F        0        1
C        2.21313153       0.54064167       4.81653646  F        0        1
O        1.98454539       0.11983455       3.45960994  F        0        1
C        0.67648655       0.17198014       3.19758579  F        0        1
O       -0.04302928       0.43231587       4.28835693  F        0        1
O        0.19991574       0.00007406       2.10624522  F        0        1
H        0.66761715      -0.50218048       5.98200447  F        0        1
H        0.55523483       1.27864346       6.06963734  F        0        1
H        2.59408972       1.56283861       4.79756372  F        0        1
H        2.94774675      -0.12450068       5.26558472  F        0        1
C        0.86440978      -4.36392861      -0.93561649  T        1        2
C        2.15044965      -4.34268391      -1.76335276  T        1        2
O        2.81871378      -3.15949972      -1.28694665  T        1        2
C        1.95229397      -2.40465328      -0.60994751  T        1        2
O        0.77726467      -3.01365709      -0.44556195  T        1        2
O        2.20788613      -1.30477501      -0.19474620  T        1        2
H       -0.02798006      -4.57630984      -1.52064326  T        1        2
H        0.91993599      -5.03603974      -0.07814400  T        1        2
H        2.79878118      -5.19837365      -1.58671748  T        1        2
H        1.96784782      -4.22374226      -2.83217879  T        1        2
41
Properties=species:S:1:pos:R:3:is_solvent:L:1:group_label:I:1:tags:I:1 Coordinates=T from=T ORCA-job=T Li1EC4_r04_charge_1_spin_1_liquid_t_traj_4_frame_0000=T E=T -1378.044545267269=T solvent_indices_0based="_JSON [31, 32, 33, 34, 35, 36, 37, 38, 39, 40]" complex_indices_0based="_JSON [0, 1, 2, 3, 4, 5, 6, 7, 8, 9, 10, 11, 12, 13, 14, 15, 16, 17, 18, 19, 20, 21, 22, 23, 24, 25, 26, 27, 28, 29, 30]" complex_indices_1based="_JSON [1, 2, 3, 4, 5, 6, 7, 8, 9, 10, 11, 12, 13, 14, 15, 16, 17, 18, 19, 20, 21, 22, 23, 24, 25, 26, 27, 28, 29, 30, 31]" pbc="F F F"
Li       1.00891400       0.12781700       0.36163300  F        0        1
C        4.52238500       1.78047300      -2.07820500  F        0        1
C        5.08840700       2.74555300      -1.03683600  F        0        1
O        4.22770100       2.52790200       0.09737800  F        0        1
C        3.12863100       1.88697900      -0.29993500  F        0        1
O        3.19591700       1.52406400      -1.58273800  F        0        1
O        2.18515200       1.66883600       0.41436200  F        0        1
H        4.44148700       2.21004500      -3.07448400  F        0        1
H        5.06058300       0.83229000      -2.11798100  F        0        1
H        6.11044100       2.51992900      -0.74010500  F        0        1
H        5.00422700       3.79216600      -1.33296600  F        0        1
C       -2.93942100       2.37392700      -0.67266900  F        0        1
C       -3.50932900       1.34107300      -1.64611900  F        0        1
O       -2.36699700       0.51723200      -1.94409300  F        0        1
C       -1.41203600       0.74272400      -1.04199700  F        0        1
O       -1.72036800       1.75264300      -0.22576200  F        0        1
O       -0.39109900       0.10948100      -0.97675300  F        0        1
H       -2.68469500       3.31932800      -1.15371500  F        0        1
H       -3.57212100       2.55325300       0.19409000  F        0        1
H       -4.27724600       0.70980700      -1.19693400  F        0        1
H       -3.87534200       1.77141900      -2.57594400  F        0        1
C        0.82213400       0.43224600       5.44050400  F        0        1
C        2.21313200       0.54064200       4.81653600  F        0        1
O        1.98454500       0.11983500       3.45961000  F        0        1
C        0.67648700       0.17198000       3.19758600  F        0        1
O       -0.04302900       0.43231600       4.28835700  F        0        1
O        0.19991600       0.00007400       2.10624500  F        0        1
H        0.66761700      -0.50218000       5.98200400  F        0        1
H        0.55523500       1.27864300       6.06963700  F        0        1
H        2.59409000       1.56283900       4.79756400  F        0        1
H        2.94774700      -0.12450100       5.26558500  F        0        1
C        0.86441000      -4.36392900      -0.93561600  T        1        2
C        2.15045000      -4.34268400      -1.76335300  T        1        2
O        2.81871400      -3.15950000      -1.28694700  T        1        2
C        1.95229400      -2.40465300      -0.60994800  T        1        2
O        0.77726500      -3.01365700      -0.44556200  T        1        2
O        2.20788600      -1.30477500      -0.19474600  T        1        2
H       -0.02798000      -4.57631000      -1.52064300  T        1        2
H        0.91993600      -5.03604000      -0.07814400  T        1        2
H        2.79878100      -5.19837400      -1.58671700  T        1        2
H        1.96784800      -4.22374200      -2.83217900  T        1        2
41
Properties=species:S:1:pos:R:3:is_solvent:L:1:group_label:I:1:tags:I:1 Coordinates=T from=T ORCA-job=T Li1EC4_r04_charge_1_spin_1_liquid_t_traj_4_frame_0001=T E=T -1378.039759976996=T solvent_indices_0based="_JSON [31, 32, 33, 34, 35, 36, 37, 38, 39, 40]" complex_indices_0based="_JSON [0, 1, 2, 3, 4, 5, 6, 7, 8, 9, 10, 11, 12, 13, 14, 15, 16, 17, 18, 19, 20, 21, 22, 23, 24, 25, 26, 27, 28, 29, 30]" complex_indices_1based="_JSON [1, 2, 3, 4, 5, 6, 7, 8, 9, 10, 11, 12, 13, 14, 15, 16, 17, 18, 19, 20, 21, 22, 23, 24, 25, 26, 27, 28, 29, 30, 31]" pbc="F F F"
Li       0.87814187       0.55545987       0.71386103  F        0        1
C        4.25974504       0.98359999      -2.21554506  F        0        1
C        5.22611922       1.54353399      -1.17267651  F        0        1
O        4.37161898       1.75895426      -0.03307033  F        0        1
C        3.10138434       1.69954336      -0.41743433  F        0        1
O        2.97765567       1.39912163      -1.71003863  F        0        1
O        2.16683946       1.90561490       0.31752353  F        0        1
H        4.39213435       1.40799448      -3.20849102  F        0        1
H        4.26702466      -0.10631445      -2.25768708  F        0        1
H        6.00879124       0.84514090      -0.88441410  F        0        1
H        5.66023664       2.50252308      -1.45882229  F        0        1
C       -3.10959555       1.94825562      -1.16205815  F        0        1
C       -3.45477347       0.66763215      -1.92390266  F        0        1
O       -2.21927878      -0.07496897      -1.88006529  F        0        1
C       -1.42096880       0.45409911      -0.95648134  F        0        1
O       -1.91743408       1.57786557      -0.44181134  F        0        1
O       -0.36762217      -0.02946798      -0.62534957  F        0        1
H       -2.86418489       2.78452803      -1.81763090  F        0        1
H       -3.86792176       2.24564915      -0.44104271  F        0        1
H       -4.22544979       0.07269350      -1.43238401  F        0        1
H       -3.71721104       0.83498030      -2.96625082  F        0        1
C        1.03310134       0.62415273       5.82061063  F        0        1
C        2.37512053       0.88370426       5.13526674  F        0        1
O        2.08900770       0.58839284       3.75488022  F        0        1
C        0.76903629       0.56204545       3.57545986  F        0        1
O        0.10116310       0.66160051       4.72079602  F        0        1
O        0.23664252       0.45750989       2.49884304  F        0        1
H        0.97174399      -0.36197303       6.28268797  F        0        1
H        0.74808578       1.39261046       6.53578259  F        0        1
H        2.69561246       1.92422479       5.20104301  F        0        1
H        3.17246992       0.22371774       5.47005215  F        0        1
C        1.14183464      -4.07008141      -0.76757800  T        1        2
C        1.96203694      -3.74652022      -2.01686763  T        1        2
O        2.73837844      -2.60755154      -1.60317620  T        1        2
C        2.20737597      -2.08875209      -0.48805371  T        1        2
O        1.22552205      -2.85433311      -0.00425248  T        1        2
O        2.57773109      -1.06292702       0.01326118  T        1        2
H        0.09356087      -4.27493690      -0.97499461  T        1        2
H        1.57229450      -4.87783808      -0.17382484  T        1        2
H        2.64448814      -4.54234001      -2.30829376  T        1        2
H        1.34544655      -3.44904160      -2.86616927  T        1        2
41
Properties=species:S:1:pos:R:3:is_solvent:L:1:group_label:I:1:tags:I:1 Coordinates=T from=T ORCA-job=T Li1EC4_r04_charge_1_spin_1_liquid_t_traj_4_frame_0001=T E=T -1378.039759976996=T solvent_indices_0based="_JSON [31, 32, 33, 34, 35, 36, 37, 38, 39, 40]" complex_indices_0based="_JSON [0, 1, 2, 3, 4, 5, 6, 7, 8, 9, 10, 11, 12, 13, 14, 15, 16, 17, 18, 19, 20, 21, 22, 23, 24, 25, 26, 27, 28, 29, 30]" complex_indices_1based="_JSON [1, 2, 3, 4, 5, 6, 7, 8, 9, 10, 11, 12, 13, 14, 15, 16, 17, 18, 19, 20, 21, 22, 23, 24, 25, 26, 27, 28, 29, 30, 31]" pbc="F F F"
Li       0.87814200       0.55546000       0.71386100  F        0        1
C        4.25974500       0.98360000      -2.21554500  F        0        1
C        5.22611900       1.54353400      -1.17267700  F        0        1
O        4.37161900       1.75895400      -0.03307000  F        0        1
C        3.10138400       1.69954300      -0.41743400  F        0        1
O        2.97765600       1.39912200      -1.71003900  F        0        1
O        2.16683900       1.90561500       0.31752400  F        0        1
H        4.39213400       1.40799400      -3.20849100  F        0        1
H        4.26702500      -0.10631400      -2.25768700  F        0        1
H        6.00879100       0.84514100      -0.88441400  F        0        1
H        5.66023700       2.50252300      -1.45882200  F        0        1
C       -3.10959600       1.94825600      -1.16205800  F        0        1
C       -3.45477300       0.66763200      -1.92390300  F        0        1
O       -2.21927900      -0.07496900      -1.88006500  F        0        1
C       -1.42096900       0.45409900      -0.95648100  F        0        1
O       -1.91743400       1.57786600      -0.44181100  F        0        1
O       -0.36762200      -0.02946800      -0.62535000  F        0        1
H       -2.86418500       2.78452800      -1.81763100  F        0        1
H       -3.86792200       2.24564900      -0.44104300  F        0        1
H       -4.22545000       0.07269400      -1.43238400  F        0        1
H       -3.71721100       0.83498000      -2.96625100  F        0        1
C        1.03310100       0.62415300       5.82061100  F        0        1
C        2.37512100       0.88370400       5.13526700  F        0        1
O        2.08900800       0.58839300       3.75488000  F        0        1
C        0.76903600       0.56204500       3.57546000  F        0        1
O        0.10116300       0.66160100       4.72079600  F        0        1
O        0.23664300       0.45751000       2.49884300  F        0        1
H        0.97174400      -0.36197300       6.28268800  F        0        1
H        0.74808600       1.39261000       6.53578300  F        0        1
H        2.69561200       1.92422500       5.20104300  F        0        1
H        3.17247000       0.22371800       5.47005200  F        0        1
C        1.14183500      -4.07008100      -0.76757800  T        1        2
C        1.96203700      -3.74652000      -2.01686800  T        1        2
O        2.73837800      -2.60755200      -1.60317600  T        1        2
C        2.20737600      -2.08875200      -0.48805400  T        1        2
O        1.22552200      -2.85433300      -0.00425200  T        1        2
O        2.57773100      -1.06292700       0.01326100  T        1        2
H        0.09356100      -4.27493700      -0.97499500  T        1        2
H        1.57229500      -4.87783800      -0.17382500  T        1        2
H        2.64448800      -4.54234000      -2.30829400  T        1        2
H        1.34544700      -3.44904200      -2.86616900  T        1        2
41
Properties=species:S:1:pos:R:3:is_solvent:L:1:group_label:I:1:tags:I:1 Coordinates=T from=T ORCA-job=T Li1EC4_r04_charge_1_spin_1_liquid_t_traj_4_frame_0002=T E=T -1378.043837724888=T solvent_indices_0based="_JSON [31, 32, 33, 34, 35, 36, 37, 38, 39, 40]" complex_indices_0based="_JSON [0, 1, 2, 3, 4, 5, 6, 7, 8, 9, 10, 11, 12, 13, 14, 15, 16, 17, 18, 19, 20, 21, 22, 23, 24, 25, 26, 27, 28, 29, 30]" complex_indices_1based="_JSON [1, 2, 3, 4, 5, 6, 7, 8, 9, 10, 11, 12, 13, 14, 15, 16, 17, 18, 19, 20, 21, 22, 23, 24, 25, 26, 27, 28, 29, 30, 31]" pbc="F F F"
Li       0.40290467      -0.01070476       0.20928126  F        0        1
C        4.93577193       0.03133469      -1.18617956  F        0        1
C        5.15794817       1.49182021      -0.80034087  F        0        1
O        3.86426412       1.88544913      -0.30174949  F        0        1
C        2.95239350       1.00689820      -0.70019521  F        0        1
O        3.50382311      -0.03099390      -1.34577954  F        0        1
O        1.77040971       1.12259204      -0.51363257  F        0        1
H        5.40070723      -0.24929601      -2.12870342  F        0        1
H        5.21752009      -0.66632132      -0.39579658  F        0        1
H        5.88786607       1.62861831      -0.00566108  F        0        1
H        5.40320322       2.12764715      -1.65214906  F        0        1
C       -3.65733780       1.93013050      -1.01487770  F        0        1
C       -4.22214508       0.74740369      -1.80405634  F        0        1
O       -3.07236916      -0.10833364      -1.96559557  F        0        1
C       -2.11787262       0.27531791      -1.12450257  F        0        1
O       -2.42710013       1.39882965      -0.48256264  F        0        1
O       -1.08564912      -0.32913993      -0.96345386  F        0        1
H       -3.41273471       2.78732831      -1.64314135  F        0        1
H       -4.28489379       2.24106131      -0.18253361  F        0        1
H       -4.98366577       0.19150996      -1.25596678  F        0        1
H       -4.59092108       1.01561350      -2.79166857  F        0        1
C        2.23360530      -0.32407411       4.68099269  F        0        1
C        2.55938767       1.09633635       4.21678150  F        0        1
O        1.78514216       1.22447719       3.01040173  F        0        1
C        0.90906376       0.22652656       2.93924918  F        0        1
O        1.03477771      -0.63197232       3.94609513  F        0        1
O        0.08175223       0.11746459       2.06745331  F        0        1
H        2.99790576      -1.04763287       4.39591126  F        0        1
H        2.01456511      -0.39922816       5.74398050  F        0        1
H        2.22871772       1.86446207       4.91708745  F        0        1
H        3.60855670       1.24135493       3.96786295  F        0        1
C        0.99817103      -2.96171498      -0.92241301  T        1        2
C        2.42357787      -3.45904160      -1.16602486  T        1        2
O        3.15522508      -2.92550117      -0.04405237  T        1        2
C        2.45108114      -1.94709649       0.52360346  T        1        2
O        1.20772035      -1.87852143       0.00238705  T        1        2
O        2.84011398      -1.19833247       1.37004771  T        1        2
H        0.50847339      -2.56458925      -1.80839818  T        1        2
H        0.36190491      -3.70268172      -0.43784835  T        1        2
H        2.51646559      -4.54268912      -1.15125119  T        1        2
H        2.86081274      -3.05327847      -2.07919521  T        1        2
41
Properties=species:S:1:pos:R:3:is_solvent:L:1:group_label:I:1:tags:I:1 Coordinates=T from=T ORCA-job=T Li1EC4_r04_charge_1_spin_1_liquid_t_traj_4_frame_0002=T E=T -1378.043837724888=T solvent_indices_0based="_JSON [31, 32, 33, 34, 35, 36, 37, 38, 39, 40]" complex_indices_0based="_JSON [0, 1, 2, 3, 4, 5, 6, 7, 8, 9, 10, 11, 12, 13, 14, 15, 16, 17, 18, 19, 20, 21, 22, 23, 24, 25, 26, 27, 28, 29, 30]" complex_indices_1based="_JSON [1, 2, 3, 4, 5, 6, 7, 8, 9, 10, 11, 12, 13, 14, 15, 16, 17, 18, 19, 20, 21, 22, 23, 24, 25, 26, 27, 28, 29, 30, 31]" pbc="F F F"
Li       0.40290500      -0.01070500       0.20928100  F        0        1
C        4.93577200       0.03133500      -1.18618000  F        0        1
C        5.15794800       1.49182000      -0.80034100  F        0        1
O        3.86426400       1.88544900      -0.30174900  F        0        1
C        2.95239300       1.00689800      -0.70019500  F        0        1
O        3.50382300      -0.03099400      -1.34578000  F        0        1
O        1.77041000       1.12259200      -0.51363300  F        0        1
H        5.40070700      -0.24929600      -2.12870300  F        0        1
H        5.21752000      -0.66632100      -0.39579700  F        0        1
H        5.88786600       1.62861800      -0.00566100  F        0        1
H        5.40320300       2.12764700      -1.65214900  F        0        1
C       -3.65733800       1.93013100      -1.01487800  F        0        1
C       -4.22214500       0.74740400      -1.80405600  F        0        1
O       -3.07236900      -0.10833400      -1.96559600  F        0        1
C       -2.11787300       0.27531800      -1.12450300  F        0        1
O       -2.42710000       1.39883000      -0.48256300  F        0        1
O       -1.08564900      -0.32914000      -0.96345400  F        0        1
H       -3.41273500       2.78732800      -1.64314100  F        0        1
H       -4.28489400       2.24106100      -0.18253400  F        0        1
H       -4.98366600       0.19151000      -1.25596700  F        0        1
H       -4.59092100       1.01561400      -2.79166900  F        0        1
C        2.23360500      -0.32407400       4.68099300  F        0        1
C        2.55938800       1.09633600       4.21678100  F        0        1
O        1.78514200       1.22447700       3.01040200  F        0        1
C        0.90906400       0.22652700       2.93924900  F        0        1
O        1.03477800      -0.63197200       3.94609500  F        0        1
O        0.08175200       0.11746500       2.06745300  F        0        1
H        2.99790600      -1.04763300       4.39591100  F        0        1
H        2.01456500      -0.39922800       5.74398100  F        0        1
H        2.22871800       1.86446200       4.91708700  F        0        1
H        3.60855700       1.24135500       3.96786300  F        0        1
C        0.99817100      -2.96171500      -0.92241300  T        1        2
C        2.42357800      -3.45904200      -1.16602500  T        1        2
O        3.15522500      -2.92550100      -0.04405200  T        1        2
C        2.45108100      -1.94709600       0.52360300  T        1        2
O        1.20772000      -1.87852100       0.00238700  T        1        2
O        2.84011400      -1.19833200       1.37004800  T        1        2
H        0.50847300      -2.56458900      -1.80839800  T        1        2
H        0.36190500      -3.70268200      -0.43784800  T        1        2
H        2.51646600      -4.54268900      -1.15125100  T        1        2
H        2.86081300      -3.05327800      -2.07919500  T        1        2
41
Properties=species:S:1:pos:R:3:is_solvent:L:1:group_label:I:1:tags:I:1 Coordinates=T from=T ORCA-job=T Li1EC4_r04_charge_1_spin_1_liquid_t_traj_4_frame_0003=T E=T -1378.044110635667=T solvent_indices_0based="_JSON [31, 32, 33, 34, 35, 36, 37, 38, 39, 40]" complex_indices_0based="_JSON [0, 1, 2, 3, 4, 5, 6, 7, 8, 9, 10, 11, 12, 13, 14, 15, 16, 17, 18, 19, 20, 21, 22, 23, 24, 25, 26, 27, 28, 29, 30]" complex_indices_1based="_JSON [1, 2, 3, 4, 5, 6, 7, 8, 9, 10, 11, 12, 13, 14, 15, 16, 17, 18, 19, 20, 21, 22, 23, 24, 25, 26, 27, 28, 29, 30, 31]" pbc="F F F"
Li       0.34020659       0.26496191       0.21326519  F        0        1
C        5.03973855      -0.09962433      -1.17171893  F        0        1
C        5.26754267       1.26445159      -0.51912766  F        0        1
O        3.94132506       1.65204545      -0.11388449  F        0        1
C        3.04953534       0.87907964      -0.71727778  F        0        1
O        3.62182935      -0.09084879      -1.43650799  F        0        1
O        1.85809611       1.02890204      -0.63742306  F        0        1
H        5.56465446      -0.22677715      -2.11628546  F        0        1
H        5.25171243      -0.93129213      -0.49889656  F        0        1
H        5.89763392       1.22027950       0.36658091  F        0        1
H        5.64628386       2.01772998      -1.21129793  F        0        1
C       -3.86963024       1.83713511      -1.26463655  F        0        1
C       -4.38983285       0.48451233      -1.75691449  F        0        1
O       -3.19965151      -0.33320778      -1.76383294  F        0        1
C       -2.24798958       0.27305876      -1.06617131  F        0        1
O       -2.59588492       1.49450229      -0.67884325  F        0        1
O       -1.18045955      -0.23452649      -0.81276189  F        0        1
H       -3.69057592       2.54883379      -2.07087266  F        0        1
H       -4.48965051       2.29093705      -0.49450433  F        0        1
H       -5.10936214       0.02840939      -1.07649092  F        0        1
H       -4.79067910       0.51148025      -2.76776432  F        0        1
C        2.50671593      -0.64533823       4.46186029  F        0        1
C        3.20202652       0.62039485       3.94326826  F        0        1
O        2.28625763       1.12978690       2.95750670  F        0        1
C        1.22961606       0.33355208       2.86508936  F        0        1
O        1.26065530      -0.66341092       3.74191368  F        0        1
O        0.32407127       0.50299784       2.08293922  F        0        1
H        3.05123743      -1.55604932       4.21642983  F        0        1
H        2.28218487      -0.60998028       5.52667411  F        0        1
H        3.33398209       1.38885634       4.70427114  F        0        1
H        4.14763515       0.41014285       3.44750309  F        0        1
C        0.75066700      -2.85334882      -0.53106990  T        1        2
C        2.04015169      -3.43478578      -1.09695731  T        1        2
O        3.02385277      -3.02376927      -0.12710812  T        1        2
C        2.54912208      -1.99203684       0.57368261  T        1        2
O        1.24262261      -1.77940408       0.30088534  T        1        2
O        3.19305787      -1.32123819       1.32782562  T        1        2
H        0.08500534      -2.42717639      -1.27700878  T        1        2
H        0.21099498      -3.55387739       0.10752852  T        1        2
H        2.04565973      -4.52095996      -1.15478076  T        1        2
H        2.31202311      -3.00043482      -2.05997656  T        1        2
41
Properties=species:S:1:pos:R:3:is_solvent:L:1:group_label:I:1:tags:I:1 Coordinates=T from=T ORCA-job=T Li1EC4_r04_charge_1_spin_1_liquid_t_traj_4_frame_0003=T E=T -1378.044110635667=T solvent_indices_0based="_JSON [31, 32, 33, 34, 35, 36, 37, 38, 39, 40]" complex_indices_0based="_JSON [0, 1, 2, 3, 4, 5, 6, 7, 8, 9, 10, 11, 12, 13, 14, 15, 16, 17, 18, 19, 20, 21, 22, 23, 24, 25, 26, 27, 28, 29, 30]" complex_indices_1based="_JSON [1, 2, 3, 4, 5, 6, 7, 8, 9, 10, 11, 12, 13, 14, 15, 16, 17, 18, 19, 20, 21, 22, 23, 24, 25, 26, 27, 28, 29, 30, 31]" pbc="F F F"
Li       0.34020700       0.26496200       0.21326500  F        0        1
C        5.03973900      -0.09962400      -1.17171900  F        0        1
C        5.26754300       1.26445200      -0.51912800  F        0        1
O        3.94132500       1.65204500      -0.11388400  F        0        1
C        3.04953500       0.87908000      -0.71727800  F        0        1
O        3.62182900      -0.09084900      -1.43650800  F        0        1
O        1.85809600       1.02890200      -0.63742300  F        0        1
H        5.56465400      -0.22677700      -2.11628500  F        0        1
H        5.25171200      -0.93129200      -0.49889700  F        0        1
H        5.89763400       1.22028000       0.36658100  F        0        1
H        5.64628400       2.01773000      -1.21129800  F        0        1
C       -3.86963000       1.83713500      -1.26463700  F        0        1
C       -4.38983300       0.48451200      -1.75691400  F        0        1
O       -3.19965200      -0.33320800      -1.76383300  F        0        1
C       -2.24799000       0.27305900      -1.06617100  F        0        1
O       -2.59588500       1.49450200      -0.67884300  F        0        1
O       -1.18046000      -0.23452600      -0.81276200  F        0        1
H       -3.69057600       2.54883400      -2.07087300  F        0        1
H       -4.48965100       2.29093700      -0.49450400  F        0        1
H       -5.10936200       0.02840900      -1.07649100  F        0        1
H       -4.79067900       0.51148000      -2.76776400  F        0        1
C        2.50671600      -0.64533800       4.46186000  F        0        1
C        3.20202700       0.62039500       3.94326800  F        0        1
O        2.28625800       1.12978700       2.95750700  F        0        1
C        1.22961600       0.33355200       2.86508900  F        0        1
O        1.26065500      -0.66341100       3.74191400  F        0        1
O        0.32407100       0.50299800       2.08293900  F        0        1
H        3.05123700      -1.55604900       4.21643000  F        0        1
H        2.28218500      -0.60998000       5.52667400  F        0        1
H        3.33398200       1.38885600       4.70427100  F        0        1
H        4.14763500       0.41014300       3.44750300  F        0        1
C        0.75066700      -2.85334900      -0.53107000  T        1        2
C        2.04015200      -3.43478600      -1.09695700  T        1        2
O        3.02385300      -3.02376900      -0.12710800  T        1        2
C        2.54912200      -1.99203700       0.57368300  T        1        2
O        1.24262300      -1.77940400       0.30088500  T        1        2
O        3.19305800      -1.32123800       1.32782600  T        1        2
H        0.08500500      -2.42717600      -1.27700900  T        1        2
H        0.21099500      -3.55387700       0.10752900  T        1        2
H        2.04566000      -4.52096000      -1.15478100  T        1        2
H        2.31202300      -3.00043500      -2.05997700  T        1        2
41
Properties=species:S:1:pos:R:3:is_solvent:L:1:group_label:I:1:tags:I:1 Coordinates=T from=T ORCA-job=T Li1EC4_r04_charge_1_spin_1_liquid_t_traj_4_frame_0004=T E=T -1378.033369463887=T solvent_indices_0based="_JSON [31, 32, 33, 34, 35, 36, 37, 38, 39, 40]" complex_indices_0based="_JSON [0, 1, 2, 3, 4, 5, 6, 7, 8, 9, 10, 11, 12, 13, 14, 15, 16, 17, 18, 19, 20, 21, 22, 23, 24, 25, 26, 27, 28, 29, 30]" complex_indices_1based="_JSON [1, 2, 3, 4, 5, 6, 7, 8, 9, 10, 11, 12, 13, 14, 15, 16, 17, 18, 19, 20, 21, 22, 23, 24, 25, 26, 27, 28, 29, 30, 31]" pbc="F F F"
Li       0.44210392       0.94121968       0.11900120  F        0        1
C        5.26729149       1.53958340      -1.40697799  F        0        1
C        4.90302221       2.96927821      -1.80798015  F        0        1
O        3.59204334       3.13337708      -1.23345049  F        0        1