41
Properties=species:S:1:pos:R:3:is_solvent:L:1:group_label:I:1:tags:I:1 Coordinates=T from=T ORCA-job=T Li1EC4_r03_charge_1_spin_1_liquid_t_traj_4_frame_0000=T E=T -1378.044305308874=T solvent_indices_0based="_JSON [31, 32, 33, 34, 35, 36, 37, 38, 39, 40]" complex_indices_0based="_JSON [0, 1, 2, 3, 4, 5, 6, 7, 8, 9, 10, 11, 12, 13, 14, 15, 16, 17, 18, 19, 20, 21, 22, 23, 24, 25, 26, 27, 28, 29, 30]" complex_indices_1based="_JSON [1, 2, 3, 4, 5, 6, 7, 8, 9, 10, 11, 12, 13, 14, 15, 16, 17, 18, 19, 20, 21, 22, 23, 24, 25, 26, 27, 28, 29, 30, 31]" pbc="F F F"
Li      -0.38868881      -1.20023566      -0.68151837  F        0        1
C        4.10823167      -0.03392422      -0.13379102  F        0        1
C        4.01743384       1.35845017      -0.75963631  F        0        1
O        2.76557900       1.30939120      -1.46874793  F        0        1
C        2.05275087       0.26952727      -1.03478687  F        0        1
O        2.74805728      -0.50033032      -0.19526679  F        0        1
O        0.91725214       0.05275693      -1.36768094  F        0        1
H        4.73145509      -0.72069243      -0.70839299  F        0        1
H        4.42261867      -0.02525442       0.90776756  F        0        1
H        3.95824473       2.15599615      -0.01769173  F        0        1
H        4.80989094       1.57016021      -1.47442273  F        0        1
C       -4.00694327       1.93690664      -2.44224778  F        0        1
C       -3.12280547       2.54545992      -1.35283600  F        0        1
O       -2.18039586       1.49205233      -1.08100240  F        0        1
C       -2.62999749       0.34881774      -1.60200607  F        0        1
O       -3.73655279       0.52798931      -2.32459915  F        0        1
O       -2.10515213      -0.72110697      -1.43945158  F        0        1
H       -5.07105945       2.09760395      -2.28212111  F        0        1
H       -3.72637273       2.25563794      -3.44709960  F        0        1
H       -2.57096409       3.42511334      -1.67749026  F        0        1
H       -3.66777006       2.76234433      -0.43298418  F        0        1
C       -2.02953162      -3.52436335       3.03905860  F        0        1
C       -0.98776833      -3.02394994       4.04055652  F        0        1
O       -0.41812498      -1.88567170       3.36809366  F        0        1
C       -0.74488590      -1.92688496       2.07594540  F        0        1
O       -1.61310111      -2.90465830       1.80876791  F        0        1
O       -0.30880102      -1.16617757       1.25260335  F        0        1
H       -2.02003839      -4.60362089       2.90151700  F        0        1
H       -3.04031229      -3.18398689       3.26856192  F        0        1
H       -1.41297773      -2.68866270       4.98422944  F        0        1
H       -0.19086422      -3.74612897       4.22343437  F        0        1
C       -0.64243554      -5.34989164      -3.68006002  T        1        2
C       -0.59754275      -4.02879187      -4.44886211  T        1        2
O       -0.56131634      -3.04806779      -3.39671282  T        1        2
C       -0.24729030      -3.64469518      -2.24414825  T        1        2
O       -0.18858604      -4.97178196      -2.36756448  T        1        2
O       -0.03714286      -3.06012708      -1.21477003  T        1        2
H       -1.65103138      -5.75554685      -3.58882530  T        1        2
H        0.03199277      -6.10818588      -4.07239599  T        1        2
H        0.30434645      -3.91674222      -5.05246401  T        1        2
H       -1.48072621      -3.84806826      -5.05809018  T        1        2
41
Properties=species:S:1:pos:R:3:is_solvent:L:1:group_label:I:1:tags:I:1 Coordinates=T from=T ORCA-job=T Li1EC4_r03_charge_1_spin_1_liquid_t_traj_4_frame_0000=T E=T -1378.044305308874=T solvent_indices_0based="_JSON [31, 32, 33, 34, 35, 36, 37, 38, 39, 40]" complex_indices_0based="_JSON [0, 1, 2, 3, 4, 5, 6, 7, 8, 9, 10, 11, 12, 13, 14, 15, 16, 17, 18, 19, 20, 21, 22, 23, 24, 25, 26, 27, 28, 29, 30]" complex_indices_1based="_JSON [1, 2, 3, 4, 5, 6, 7, 8, 9, 10, 11, 12, 13, 14, 15, 16, 17, 18, 19, 20, 21, 22, 23, 24, 25, 26, 27, 28, 29, 30, 31]" pbc="F F F"
Li      -0.38868900      -1.20023600      -0.68151800  F        0        1
C        4.10823200      -0.03392400      -0.13379100  F        0        1
C        4.01743400       1.35845000      -0.75963600  F        0        1
O        2.76557900       1.30939100      -1.46874800  F        0        1
C        2.05275100       0.26952700      -1.03478700  F        0        1
O        2.74805700      -0.50033000      -0.19526700  F        0        1
O        0.91725200       0.05275700      -1.36768100  F        0        1
H        4.73145500      -0.72069200      -0.70839300  F        0        1
H        4.42261900      -0.02525400       0.90776800  F        0        1
H        3.95824500       2.15599600      -0.01769200  F        0        1
H        4.80989100       1.57016000      -1.47442300  F        0        1
C       -4.00694300       1.93690700      -2.44224800  F        0        1
C       -3.12280500       2.54546000      -1.35283600  F        0        1
O       -2.18039600       1.49205200      -1.08100200  F        0        1
C       -2.62999700       0.34881800      -1.60200600  F        0        1
O       -3.73655300       0.52798900      -2.32459900  F        0        1
O       -2.10515200      -0.72110700      -1.43945200  F        0        1
H       -5.07105900       2.09760400      -2.28212100  F        0        1
H       -3.72637300       2.25563800      -3.44710000  F        0        1
H       -2.57096400       3.42511300      -1.67749000  F        0        1
H       -3.66777000       2.76234400      -0.43298400  F        0        1
C       -2.02953200      -3.52436300       3.03905900  F        0        1
C       -0.98776800      -3.02395000       4.04055700  F        0        1
O       -0.41812500      -1.88567200       3.36809400  F        0        1
C       -0.74488600      -1.92688500       2.07594500  F        0        1
O       -1.61310100      -2.90465800       1.80876800  F        0        1
O       -0.30880100      -1.16617800       1.25260300  F        0        1
H       -2.02003800      -4.60362100       2.90151700  F        0        1
H       -3.04031200      -3.18398700       3.26856200  F        0        1
H       -1.41297800      -2.68866300       4.98422900  F        0        1
H       -0.19086400      -3.74612900       4.22343400  F        0        1
C       -0.64243600      -5.34989200      -3.68006000  T        1        2
C       -0.59754300      -4.02879200      -4.44886200  T        1        2
O       -0.56131600      -3.04806800      -3.39671300  T        1        2
C       -0.24729000      -3.64469500      -2.24414800  T        1        2
O       -0.18858600      -4.97178200      -2.36756400  T        1        2
O       -0.03714300      -3.06012700      -1.21477000  T        1        2
H       -1.65103100      -5.75554700      -3.58882500  T        1        2
H        0.03199300      -6.10818600      -4.07239600  T        1        2
H        0.30434600      -3.91674200      -5.05246400  T        1        2
H       -1.48072600      -3.84806800      -5.05809000  T        1        2
41
Properties=species:S:1:pos:R:3:is_solvent:L:1:group_label:I:1:tags:I:1 Coordinates=T from=T ORCA-job=T Li1EC4_r03_charge_1_spin_1_liquid_t_traj_4_frame_0001=T E=T -1378.038302170881=T solvent_indices_0based="_JSON [31, 32, 33, 34, 35, 36, 37, 38, 39, 40]" complex_indices_0based="_JSON [0, 1, 2, 3, 4, 5, 6, 7, 8, 9, 10, 11, 12, 13, 14, 15, 16, 17, 18, 19, 20, 21, 22, 23, 24, 25, 26, 27, 28, 29, 30]" complex_indices_1based="_JSON [1, 2, 3, 4, 5, 6, 7, 8, 9, 10, 11, 12, 13, 14, 15, 16, 17, 18, 19, 20, 21, 22, 23, 24, 25, 26, 27, 28, 29, 30, 31]" pbc="F F F"
Li      -0.21186198      -0.44085252      -0.06505235  F        0        1
C        4.38679928       0.57865932       0.42537399  F        0        1
C        4.23126044       2.08731090       0.22561574  F        0        1
O        2.90117156       2.20233687      -0.31512136  F        0        1
C        2.24260194       1.06512360      -0.10856770  F        0        1
O        3.02446180       0.11140752       0.39408667  F        0        1
O        1.07157931       0.92021280      -0.35346073  F        0        1
H        4.93174486       0.09377278      -0.38564079  F        0        1
H        4.82109083       0.30662611       1.38501021  F        0        1
H        4.26855125       2.64801559       1.16049046  F        0        1
H        4.93196327       2.50850542      -0.49211848  F        0        1
C       -3.36538668       0.65517110      -3.81822341  F        0        1
C       -2.10747107       1.52191489      -3.75742904  F        0        1
O       -1.40785849       0.98187362      -2.62129230  F        0        1
C       -2.24111264       0.23552132      -1.90262902  F        0        1
O       -3.42374501       0.08069200      -2.49881685  F        0        1
O       -1.96583101      -0.24710596      -0.83296108  F        0        1
H       -4.28005995       1.21860184      -3.98981918  F        0        1
H       -3.28161817      -0.15728936      -4.54204286  F        0        1
H       -1.46828179       1.42717766      -4.63251039  F        0        1
H       -2.32088611       2.57289624      -3.55855124  F        0        1
C       -1.36683989      -4.44490339       2.04285809  F        0        1
C       -0.05909801      -4.53031543       2.83839922  F        0        1
O        0.44198601      -3.18296501       2.79309423  F        0        1
C       -0.24723519      -2.47797253       1.90090649  F        0        1
O       -1.27792887      -3.15958303       1.40359324  F        0        1
O        0.02816727      -1.34885629       1.58477393  F        0        1
H       -1.45020323      -5.20413167       1.26739232  F        0        1
H       -2.25534566      -4.45017338       2.67492034  F        0        1
H       -0.20113974      -4.80950064       3.88057488  F        0        1
H        0.67963430      -5.18360105       2.37331667  F        0        1
C       -2.58344171      -4.43303301      -2.22755370  T        1        2
C       -2.56476479      -3.39777720      -3.35209816  T        1        2
O       -1.56384357      -2.46548602      -2.91267281  T        1        2
C       -0.84672823      -3.00545726      -1.91173642  T        1        2
O       -1.33278156      -4.20602081      -1.56017265  T        1        2
O        0.10484155      -2.48605979      -1.40686757  T        1        2
H       -3.39184719      -4.26180446      -1.51445002  T        1        2
H       -2.60725229      -5.46144441      -2.58271408  T        1        2
H       -2.25160087      -3.81398405      -4.31086474  T        1        2
H       -3.50854639      -2.86577960      -3.46060813  T        1        2
41
Properties=species:S:1:pos:R:3:is_solvent:L:1:group_label:I:1:tags:I:1 Coordinates=T from=T ORCA-job=T Li1EC4_r03_charge_1_spin_1_liquid_t_traj_4_frame_0001=T E=T -1378.038302170881=T solvent_indices_0based="_JSON [31, 32, 33, 34, 35, 36, 37, 38, 39, 40]" complex_indices_0based="_JSON [0, 1, 2, 3, 4, 5, 6, 7, 8, 9, 10, 11, 12, 13, 14, 15, 16, 17, 18, 19, 20, 21, 22, 23, 24, 25, 26, 27, 28, 29, 30]" complex_indices_1based="_JSON [1, 2, 3, 4, 5, 6, 7, 8, 9, 10, 11, 12, 13, 14, 15, 16, 17, 18, 19, 20, 21, 22, 23, 24, 25, 26, 27, 28, 29, 30, 31]" pbc="F F F"
Li      -0.21186200      -0.44085300      -0.06505200  F        0        1
C        4.38679900       0.57865900       0.42537400  F        0        1
C        4.23126000       2.08731100       0.22561600  F        0        1
O        2.90117200       2.20233700      -0.31512100  F        0        1
C        2.24260200       1.06512400      -0.10856800  F        0        1
O        3.02446200       0.11140800       0.39408700  F        0        1
O        1.07157900       0.92021300      -0.35346100  F        0        1
H        4.93174500       0.09377300      -0.38564100  F        0        1
H        4.82109100       0.30662600       1.38501000  F        0        1
H        4.26855100       2.64801600       1.16049000  F        0        1
H        4.93196300       2.50850500      -0.49211800  F        0        1
C       -3.36538700       0.65517100      -3.81822300  F        0        1
C       -2.10747100       1.52191500      -3.75742900  F        0        1
O       -1.40785800       0.98187400      -2.62129200  F        0        1
C       -2.24111300       0.23552100      -1.90262900  F        0        1
O       -3.42374500       0.08069200      -2.49881700  F        0        1
O       -1.96583100      -0.24710600      -0.83296100  F        0        1
H       -4.28006000       1.21860200      -3.98981900  F        0        1
H       -3.28161800      -0.15728900      -4.54204300  F        0        1
H       -1.46828200       1.42717800      -4.63251000  F        0        1
H       -2.32088600       2.57289600      -3.55855100  F        0        1
C       -1.36684000      -4.44490300       2.04285800  F        0        1
C       -0.05909800      -4.53031500       2.83839900  F        0        1
O        0.44198600      -3.18296500       2.79309400  F        0        1
C       -0.24723500      -2.47797300       1.90090600  F        0        1
O       -1.27792900      -3.15958300       1.40359300  F        0        1
O        0.02816700      -1.34885600       1.58477400  F        0        1
H       -1.45020300      -5.20413200       1.26739200  F        0        1
H       -2.25534600      -4.45017300       2.67492000  F        0        1
H       -0.20114000      -4.80950100       3.88057500  F        0        1
H        0.67963400      -5.18360100       2.37331700  F        0        1
C       -2.58344200      -4.43303300      -2.22755400  T        1        2
C       -2.56476500      -3.39777700      -3.35209800  T        1        2
O       -1.56384400      -2.46548600      -2.91267300  T        1        2
C       -0.84672800      -3.00545700      -1.91173600  T        1        2
O       -1.33278200      -4.20602100      -1.56017300  T        1        2
O        0.10484200      -2.48606000      -1.40686800  T        1        2
H       -3.39184700      -4.26180400      -1.51445000  T        1        2
H       -2.60725200      -5.46144400      -2.58271400  T        1        2
H       -2.25160100      -3.81398400      -4.31086500  T        1        2
H       -3.50854600      -2.86578000      -3.46060800  T        1        2
41
Properties=species:S:1:pos:R:3:is_solvent:L:1:group_label:I:1:tags:I:1 Coordinates=T from=T ORCA-job=T Li1EC4_r03_charge_1_spin_1_liquid_t_traj_4_frame_0002=T E=T -1378.036512169191=T solvent_indices_0based="_JSON [31, 32, 33, 34, 35, 36, 37, 38, 39, 40]" complex_indices_0based="_JSON [0, 1, 2, 3, 4, 5, 6, 7, 8, 9, 10, 11, 12, 13, 14, 15, 16, 17, 18, 19, 20, 21, 22, 23, 24, 25, 26, 27, 28, 29, 30]" complex_indices_1based="_JSON [1, 2, 3, 4, 5, 6, 7, 8, 9, 10, 11, 12, 13, 14, 15, 16, 17, 18, 19, 20, 21, 22, 23, 24, 25, 26, 27, 28, 29, 30, 31]" pbc="F F F"
Li      -0.06288562      -0.46304067      -0.10037088  F        0        1
C        4.28769142       1.12060174       0.97347028  F        0        1
C        4.01631050       2.57130510       0.57183703  F        0        1
O        2.78781886       2.47092728      -0.17554658  F        0        1
C        2.22346285       1.29139534       0.06403876  F        0        1
O        3.00162584       0.49455037       0.79133173  F        0        1
O        1.12844568       0.98430841      -0.33936930  F        0        1
H        5.00304969       0.62179190       0.31852384  F        0        1
H        4.58221100       1.00069101       2.01371304  F        0        1
H        3.84113127       3.22651346       1.42595133  F        0        1
H        4.77918863       2.99573252      -0.07720075  F        0        1
C       -2.71204921       0.38068435      -4.30302012  F        0        1
C       -1.25271793       0.83639974      -4.32068694  F        0        1
O       -0.75915366       0.36177939      -3.05464967  F        0        1
C       -1.78494224       0.04603299      -2.26925477  F        0        1
O       -2.95276098       0.12666918      -2.90558491  F        0        1
O       -1.67493887      -0.27546168      -1.11233214  F        0        1
H       -3.41436071       1.13953843      -4.64107077  F        0        1
H       -2.86872783      -0.55016860      -4.85045438  F        0        1
H       -0.66328274       0.38079414      -5.11331511  F        0        1
H       -1.14344706       1.92134293      -4.34369688  F        0        1
C       -1.04976316      -4.73508067       1.96168406  F        0        1
C        0.38026250      -5.01830922       1.50309689  F        0        1
O        0.97673678      -3.70714781       1.50438207  F        0        1
C        0.01234444      -2.79632275       1.49276958  F        0        1
O       -1.18869286      -3.32318182       1.70900986  F        0        1
O        0.20646756      -1.61569681       1.32789752  F        0        1
H       -1.80318839      -5.26085983       1.38071580  F        0        1
H       -1.19960276      -4.90432378       3.02887480  F        0        1
H        0.94379701      -5.65196858       2.18436152  F        0        1
H        0.42905498      -5.40518173       0.48499777  F        0        1
C       -3.59728854      -4.14612396      -1.70095456  T        1        2
C       -3.33098077      -3.36341892      -2.98851926  T        1        2
O       -2.02101460      -2.81433192      -2.77188195  T        1        2
C       -1.45293281      -3.38731629      -1.69665404  T        1        2
O       -2.29031300      -4.26361374      -1.11663223  T        1        2
O       -0.34553710      -3.15666844      -1.31058730  T        1        2
H       -4.23872238      -3.60573736      -1.00298399  T        1        2
H       -3.99069151      -5.14573247      -1.87543921  T        1        2
H       -3.29606989      -3.99806840      -3.87520927  T        1        2
H       -4.02792149      -2.54051672      -3.14124682  T        1        2
41
Properties=species:S:1:pos:R:3:is_solvent:L:1:group_label:I:1:tags:I:1 Coordinates=T from=T ORCA-job=T Li1EC4_r03_charge_1_spin_1_liquid_t_traj_4_frame_0002=T E=T -1378.036512169191=T solvent_indices_0based="_JSON [31, 32, 33, 34, 35, 36, 37, 38, 39, 40]" complex_indices_0based="_JSON [0, 1, 2, 3, 4, 5, 6, 7, 8, 9, 10, 11, 12, 13, 14, 15, 16, 17, 18, 19, 20, 21, 22, 23, 24, 25, 26, 27, 28, 29, 30]" complex_indices_1based="_JSON [1, 2, 3, 4, 5, 6, 7, 8, 9, 10, 11, 12, 13, 14, 15, 16, 17, 18, 19, 20, 21, 22, 23, 24, 25, 26, 27, 28, 29, 30, 31]" pbc="F F F"
Li      -0.06288600      -0.46304100      -0.10037100  F        0        1
C        4.28769100       1.12060200       0.97347000  F        0        1
C        4.01631000       2.57130500       0.57183700  F        0        1
O        2.78781900       2.47092700      -0.17554700  F        0        1
C        2.22346300       1.29139500       0.06403900  F        0        1
O        3.00162600       0.49455000       0.79133200  F        0        1
O        1.12844600       0.98430800      -0.33936900  F        0        1
H        5.00305000       0.62179200       0.31852400  F        0        1
H        4.58221100       1.00069100       2.01371300  F        0        1
H        3.84113100       3.22651300       1.42595100  F        0        1
H        4.77918900       2.99573300      -0.07720100  F        0        1
C       -2.71204900       0.38068400      -4.30302000  F        0        1
C       -1.25271800       0.83640000      -4.32068700  F        0        1
O       -0.75915400       0.36177900      -3.05465000  F        0        1
C       -1.78494200       0.04603300      -2.26925500  F        0        1
O       -2.95276100       0.12666900      -2.90558500  F        0        1
O       -1.67493900      -0.27546200      -1.11233200  F        0        1
H       -3.41436100       1.13953800      -4.64107100  F        0        1
H       -2.86872800      -0.55016900      -4.85045400  F        0        1
H       -0.66328300       0.38079400      -5.11331500  F        0        1
H       -1.14344700       1.92134300      -4.34369700  F        0        1
C       -1.04976300      -4.73508100       1.96168400  F        0        1
C        0.38026300      -5.01830900       1.50309700  F        0        1
O        0.97673700      -3.70714800       1.50438200  F        0        1
C        0.01234400      -2.79632300       1.49277000  F        0        1
O       -1.18869300      -3.32318200       1.70901000  F        0        1
O        0.20646800      -1.61569700       1.32789800  F        0        1
H       -1.80318800      -5.26086000       1.38071600  F        0        1
H       -1.19960300      -4.90432400       3.02887500  F        0        1
H        0.94379700      -5.65196900       2.18436200  F        0        1
H        0.42905500      -5.40518200       0.48499800  F        0        1
C       -3.59728900      -4.14612400      -1.70095500  T        1        2
C       -3.33098100      -3.36341900      -2.98851900  T        1        2
O       -2.02101500      -2.81433200      -2.77188200  T        1        2
C       -1.45293300      -3.38731600      -1.69665400  T        1        2
O       -2.29031300      -4.26361400      -1.11663200  T        1        2
O       -0.34553700      -3.15666800      -1.31058700  T        1        2
H       -4.23872200      -3.60573700      -1.00298400  T        1        2
H       -3.99069200      -5.14573200      -1.87543900  T        1        2
H       -3.29607000      -3.99806800      -3.87520900  T        1        2
H       -4.02792100      -2.54051700      -3.14124700  T        1        2
41
Properties=species:S:1:pos:R:3:is_solvent:L:1:group_label:I:1:tags:I:1 Coordinates=T from=T ORCA-job=T Li1EC4_r03_charge_1_spin_1_liquid_t_traj_4_frame_0003=T E=T -1378.029785789427=T solvent_indices_0based="_JSON [31, 32, 33, 34, 35, 36, 37, 38, 39, 40]" complex_indices_0based="_JSON [0, 1, 2, 3, 4, 5, 6, 7, 8, 9, 10, 11, 12, 13, 14, 15, 16, 17, 18, 19, 20, 21, 22, 23, 24, 25, 26, 27, 28, 29, 30]" complex_indices_1based="_JSON [1, 2, 3, 4, 5, 6, 7, 8, 9, 10, 11, 12, 13, 14, 15, 16, 17, 18, 19, 20, 21, 22, 23, 24, 25, 26, 27, 28, 29, 30, 31]" pbc="F F F"
Li      -0.51592918      -0.09328226       0.54181403  F        0        1
C        4.12796788       0.17045054      -0.05468201  F        0        1
C        4.20135920       1.68553080      -0.24476779  F        0        1
O        2.81595240       2.05464240      -0.38932009  F        0        1
C        2.05009406       1.05772683       0.04033048  F        0        1
O        2.75654400      -0.03235067       0.34028410  F        0        1
O        0.85167956       1.13277585       0.14497714  F        0        1
H        4.30079799      -0.38610624      -0.97677099  F        0        1
H        4.77272244      -0.20312508       0.73786454  F        0        1
H        4.60323895       2.20644137       0.62527092  F        0        1
H        4.73340402       1.98971966      -1.14350491  F        0        1
C       -3.20977574       0.48028890      -3.70940829  F        0        1
C       -1.76628133       0.99961964      -3.77466472  F        0        1
O       -1.26187159       0.75498422      -2.45152352  F        0        1
C       -2.21349579       0.22567844      -1.69070292  F        0        1
O       -3.36267283       0.07768838      -2.33864451  F        0        1
O       -2.06066034      -0.07515748      -0.53182738  F        0        1
H       -3.95714909       1.24276561      -3.92368867  F        0        1
H       -3.37602263      -0.39266549      -4.33908180  F        0        1
H       -1.14338148       0.45282908      -4.48086008  F        0        1
H       -1.70097617       2.06991640      -3.96766331  F        0        1
C       -1.42253676      -4.53440315       2.21181527  F        0        1
C       -0.40536512      -4.43373859       3.34909568  F        0        1
O       -0.08200687      -3.03006081       3.36283168  F        0        1
C       -0.49559447      -2.47180870       2.23034231  F        0        1
O       -1.19725181      -3.31616339       1.47460114  F        0        1
O       -0.25851402      -1.33051422       1.92599268  F        0        1
H       -1.24924443      -5.37615753       1.54446784  F        0        1
H       -2.45582660      -4.53438351       2.56124150  F        0        1
H       -0.80847452      -4.70331421       4.32284992  F        0        1
H        0.51099499      -4.99196097       3.15308123  F        0        1
C       -1.68062209      -4.81439295      -3.51108698  T        1        2
C       -2.40947078      -3.57481623      -4.02846644  T        1        2
O       -1.81830812      -2.51269403      -3.26485380  T        1        2
C       -0.66377000      -2.94833489      -2.70211594  T        1        2
O       -0.49982044      -4.26526804      -2.90975082  T        1        2
O        0.09145886      -2.24827470      -2.10464342  T        1        2
H       -2.24491668      -5.34713223      -2.74317371  T        1        2
H       -1.38128059      -5.50350840      -4.29840022  T        1        2
H       -2.22204251      -3.39009490      -5.08830265  T        1        2
H       -3.48087017      -3.58750001      -3.83539874  T        1        2
41
Properties=species:S:1:pos:R:3:is_solvent:L:1:group_label:I:1:tags:I:1 Coordinates=T from=T ORCA-job=T Li1EC4_r03_charge_1_spin_1_liquid_t_traj_4_frame_0003=T E=T -1378.029785789427=T solvent_indices_0based="_JSON [31, 32, 33, 34, 35, 36, 37, 38, 39, 40]" complex_indices_0based="_JSON [0, 1, 2, 3, 4, 5, 6, 7, 8, 9, 10, 11, 12, 13, 14, 15, 16, 17, 18, 19, 20, 21, 22, 23, 24, 25, 26, 27, 28, 29, 30]" complex_indices_1based="_JSON [1, 2, 3, 4, 5, 6, 7, 8, 9, 10, 11, 12, 13, 14, 15, 16, 17, 18, 19, 20, 21, 22, 23, 24, 25, 26, 27, 28, 29, 30, 31]" pbc="F F F"
Li      -0.51592900      -0.09328200       0.54181400  F        0        1
C        4.12796800       0.17045100      -0.05468200  F        0        1
C        4.20135900       1.68553100      -0.24476800  F        0        1
O        2.81595200       2.05464200      -0.38932000  F        0        1
C        2.05009400       1.05772700       0.04033000  F        0        1
O        2.75654400      -0.03235100       0.34028400  F        0        1
O        0.85168000       1.13277600       0.14497700  F        0        1
H        4.30079800      -0.38610600      -0.97677100  F        0        1
H        4.77272200      -0.20312500       0.73786500  F        0        1
H        4.60323900       2.20644100       0.62527100  F        0        1
H        4.73340400       1.98972000      -1.14350500  F        0        1
C       -3.20977600       0.48028900      -3.70940800  F        0        1
C       -1.76628100       0.99962000      -3.77466500  F        0        1
O       -1.26187200       0.75498400      -2.45152400  F        0        1
C       -2.21349600       0.22567800      -1.69070300  F        0        1
O       -3.36267300       0.07768800      -2.33864500  F        0        1
O       -2.06066000      -0.07515700      -0.53182700  F        0        1
H       -3.95714900       1.24276600      -3.92368900  F        0        1
H       -3.37602300      -0.39266500      -4.33908200  F        0        1
H       -1.14338100       0.45282900      -4.48086000  F        0        1
H       -1.70097600       2.06991600      -3.96766300  F        0        1
C       -1.42253700      -4.53440300       2.21181500  F        0        1
C       -0.40536500      -4.43373900       3.34909600  F        0        1
O       -0.08200700      -3.03006100       3.36283200  F        0        1
C       -0.49559400      -2.47180900       2.23034200  F        0        1
O       -1.19725200      -3.31616300       1.47460100  F        0        1
O       -0.25851400      -1.33051400       1.92599300  F        0        1
H       -1.24924400      -5.37615800       1.54446800  F        0        1
H       -2.45582700      -4.53438400       2.56124100  F        0        1
H       -0.80847500      -4.70331400       4.32285000  F        0        1
H        0.51099500      -4.99196100       3.15308100  F        0        1
C       -1.68062200      -4.81439300      -3.51108700  T        1        2
C       -2.40947100      -3.57481600      -4.02846600  T        1        2
O       -1.81830800      -2.51269400      -3.26485400  T        1        2
C       -0.66377000      -2.94833500      -2.70211600  T        1        2
O       -0.49982000      -4.26526800      -2.90975100  T        1        2
O        0.09145900      -2.24827500      -2.10464300  T        1        2
H       -2.24491700      -5.34713200      -2.74317400  T        1        2
H       -1.38128100      -5.50350800      -4.29840000  T        1        2
H       -2.22204300      -3.39009500      -5.08830300  T        1        2
H       -3.48087000      -3.58750000      -3.83539900  T        1        2
41
Properties=species:S:1:pos:R:3:is_solvent:L:1:group_label:I:1:tags:I:1 Coordinates=T from=T ORCA-job=T Li1EC4_r03_charge_1_spin_1_liquid_t_traj_4_frame_0004=T E=T -1378.038836075442=T solvent_indices_0based="_JSON [31, 32, 33, 34, 35, 36, 37, 38, 39, 40]" complex_indices_0based="_JSON [0, 1, 2, 3, 4, 5, 6, 7, 8, 9, 10, 11, 12, 13, 14, 15, 16, 17, 18, 19, 20, 21, 22, 23, 24, 25, 26, 27, 28, 29, 30]" complex_indices_1based="_JSON [1, 2, 3, 4, 5, 6, 7, 8, 9, 10, 11, 12, 13, 14, 15, 16, 17, 18, 19, 20, 21, 22, 23, 24, 25, 26, 27, 28, 29, 30, 31]" pbc="F F F"
Li      -0.37995592      -2.27609651       0.52105966  F        0        1
C        3.59364468      -1.58876426      -2.30166348  F        0        1
C        3.45707100      -0.08019047      -2.05246219  F        0        1
O        2.57202784      -0.01068314      -0.92163199  F        0        1