41
Properties=species:S:1:pos:R:3:is_solvent:L:1:group_label:I:1:tags:I:1 Coordinates=T from=T ORCA-job=T Li1EC4_r07_charge_1_spin_1_liquid_t_traj_1_frame_0000=T E=T -1378.044440525044=T solvent_indices_0based="_JSON [1, 2, 3, 4, 5, 6, 7, 8, 9, 10]" complex_indices_0based="_JSON [0, 11, 12, 13, 14, 15, 16, 17, 18, 19, 20, 21, 22, 23, 24, 25, 26, 27, 28, 29, 30, 31, 32, 33, 34, 35, 36, 37, 38, 39, 40]" complex_indices_1based="_JSON [1, 12, 13, 14, 15, 16, 17, 18, 19, 20, 21, 22, 23, 24, 25, 26, 27, 28, 29, 30, 31, 32, 33, 34, 35, 36, 37, 38, 39, 40, 41]" pbc="F F F"
Li       0.01428137       0.11977889       0.14395174  F        0        1
C        4.16885033       0.93691172       2.18020605  T        1        2
C        3.95259336       2.43288669       2.41147448  T        1        2
O        2.87597515       2.74387436       1.50816682  T        1        2
C        2.28633690       1.61326572       1.11823284  T        1        2
O        2.94280016       0.53209109       1.54434103  T        1        2
O        1.28330364       1.57668936       0.45538099  T        1        2
H        4.99393711       0.72481922       1.49864342  T        1        2
H        4.28578643       0.36498683       3.09838131  T        1        2
H        3.62498127       2.66408701       3.42600128  T        1        2
H        4.81195926       3.04544287       2.14679337  T        1        2
C        1.01996906      -0.75334886      -4.35782913  F        0        1
C        0.63993554      -2.23386512      -4.31555392  F        0        1
O        0.66441567      -2.53058994      -2.90718835  F        0        1
C        0.65402280      -1.39046860      -2.21567773  F        0        1
O        0.77541218      -0.32267592      -3.00616067  F        0        1
O        0.55261238      -1.33659679      -1.01815213  F        0        1
H        2.07452717      -0.58848394      -4.58342337  F        0        1
H        0.39754629      -0.16131013      -5.02555981  F        0        1
H       -0.36739999      -2.42563742      -4.68772968  F        0        1
H        1.35429138      -2.88372843      -4.81672162  F        0        1
C       -2.87011213       3.78151839       0.58132490  F        0        1
C       -3.19901950       3.90361280      -0.90750694  F        0        1
O       -2.81454371       2.61797277      -1.42719469  F        0        1
C       -2.04413788       1.99307974      -0.53642285  F        0        1
O       -1.97387365       2.65626277       0.61929518  F        0        1
O       -1.48459614       0.95015109      -0.75176157  F        0        1
H       -2.35188164       4.64751431       0.98789954  F        0        1
H       -3.74216324       3.54554759       1.19292645  F        0        1
H       -4.25725274       4.05459760      -1.11048731  F        0        1
H       -2.60748572       4.66795244      -1.41336089  F        0        1
C       -1.39417681      -3.58346341       3.33121698  F        0        1
C       -1.89944502      -3.70673635       1.89346899  F        0        1
O       -1.62943735      -2.40189218       1.35040574  F        0        1
C       -0.75784679      -1.76897773       2.13808071  F        0        1
O       -0.51897122      -2.44217428       3.26358758  F        0        1
O       -0.24884923      -0.71217247       1.87030167  F        0        1
H       -2.18794145      -3.36408133       4.04678942  F        0        1
H       -0.81502698      -4.44123746       3.66664506  F        0        1
H       -1.34489076      -4.44211308       1.30867655  F        0        1
H       -2.96809113      -3.89685055       1.81892749  F        0        1
41
Properties=species:S:1:pos:R:3:is_solvent:L:1:group_label:I:1:tags:I:1 Coordinates=T from=T ORCA-job=T Li1EC4_r07_charge_1_spin_1_liquid_t_traj_1_frame_0000=T E=T -1378.044440525044=T solvent_indices_0based="_JSON [1, 2, 3, 4, 5, 6, 7, 8, 9, 10]" complex_indices_0based="_JSON [0, 11, 12, 13, 14, 15, 16, 17, 18, 19, 20, 21, 22, 23, 24, 25, 26, 27, 28, 29, 30, 31, 32, 33, 34, 35, 36, 37, 38, 39, 40]" complex_indices_1based="_JSON [1, 12, 13, 14, 15, 16, 17, 18, 19, 20, 21, 22, 23, 24, 25, 26, 27, 28, 29, 30, 31, 32, 33, 34, 35, 36, 37, 38, 39, 40, 41]" pbc="F F F"
Li       0.01428100       0.11977900       0.14395200  F        0        1
C        4.16885000       0.93691200       2.18020600  T        1        2
C        3.95259300       2.43288700       2.41147400  T        1        2
O        2.87597500       2.74387400       1.50816700  T        1        2
C        2.28633700       1.61326600       1.11823300  T        1        2
O        2.94280000       0.53209100       1.54434100  T        1        2
O        1.28330400       1.57668900       0.45538100  T        1        2
H        4.99393700       0.72481900       1.49864300  T        1        2
H        4.28578600       0.36498700       3.09838100  T        1        2
H        3.62498100       2.66408700       3.42600100  T        1        2
H        4.81195900       3.04544300       2.14679300  T        1        2
C        1.01996900      -0.75334900      -4.35782900  F        0        1
C        0.63993600      -2.23386500      -4.31555400  F        0        1
O        0.66441600      -2.53059000      -2.90718800  F        0        1
C        0.65402300      -1.39046900      -2.21567800  F        0        1
O        0.77541200      -0.32267600      -3.00616100  F        0        1
O        0.55261200      -1.33659700      -1.01815200  F        0        1
H        2.07452700      -0.58848400      -4.58342300  F        0        1
H        0.39754600      -0.16131000      -5.02556000  F        0        1
H       -0.36740000      -2.42563700      -4.68773000  F        0        1
H        1.35429100      -2.88372800      -4.81672200  F        0        1
C       -2.87011200       3.78151800       0.58132500  F        0        1
C       -3.19902000       3.90361300      -0.90750700  F        0        1
O       -2.81454400       2.61797300      -1.42719500  F        0        1
C       -2.04413800       1.99308000      -0.53642300  F        0        1
O       -1.97387400       2.65626300       0.61929500  F        0        1
O       -1.48459600       0.95015100      -0.75176200  F        0        1
H       -2.35188200       4.64751400       0.98790000  F        0        1
H       -3.74216300       3.54554800       1.19292600  F        0        1
H       -4.25725300       4.05459800      -1.11048700  F        0        1
H       -2.60748600       4.66795200      -1.41336100  F        0        1
C       -1.39417700      -3.58346300       3.33121700  F        0        1
C       -1.89944500      -3.70673600       1.89346900  F        0        1
O       -1.62943700      -2.40189200       1.35040600  F        0        1
C       -0.75784700      -1.76897800       2.13808100  F        0        1
O       -0.51897100      -2.44217400       3.26358800  F        0        1
O       -0.24884900      -0.71217200       1.87030200  F        0        1
H       -2.18794100      -3.36408100       4.04678900  F        0        1
H       -0.81502700      -4.44123700       3.66664500  F        0        1
H       -1.34489100      -4.44211300       1.30867700  F        0        1
H       -2.96809100      -3.89685100       1.81892700  F        0        1
41
Properties=species:S:1:pos:R:3:is_solvent:L:1:group_label:I:1:tags:I:1 Coordinates=T from=T ORCA-job=T Li1EC4_r07_charge_1_spin_1_liquid_t_traj_1_frame_0001=T E=T -1378.037888345936=T solvent_indices_0based="_JSON [1, 2, 3, 4, 5, 6, 7, 8, 9, 10]" complex_indices_0based="_JSON [0, 11, 12, 13, 14, 15, 16, 17, 18, 19, 20, 21, 22, 23, 24, 25, 26, 27, 28, 29, 30, 31, 32, 33, 34, 35, 36, 37, 38, 39, 40]" complex_indices_1based="_JSON [1, 12, 13, 14, 15, 16, 17, 18, 19, 20, 21, 22, 23, 24, 25, 26, 27, 28, 29, 30, 31, 32, 33, 34, 35, 36, 37, 38, 39, 40, 41]" pbc="F F F"
Li      -0.64782831      -0.24984876       0.12774202  F        0        1
C        4.29458081       1.04144720       0.00408443  T        1        2
C        4.18876104       1.88661303       1.27326532  T        1        2
O        2.82453806       2.33571564       1.24416651  T        1        2
C        2.11856340       1.57697537       0.39923393  T        1        2
O        2.91997678       0.74901259      -0.30147426  T        1        2
O        0.93044481       1.62769815       0.27231866  T        1        2
H        4.72506270       1.59238278      -0.83444346  T        1        2
H        4.82561953       0.10237644       0.14778647  T        1        2
H        4.33970272       1.30518380       2.18422536  T        1        2
H        4.84119412       2.75736436       1.27386625  T        1        2
C        1.95737864      -0.18125677      -3.65393024  F        0        1
C        2.61587063      -1.55150132      -3.50928562  F        0        1
O        2.20096263      -1.96044319      -2.19204697  F        0        1
C        1.15786434      -1.22146008      -1.81726751  F        0        1
O        0.90054031      -0.23904911      -2.68034272  F        0        1
O        0.51822914      -1.42654854      -0.81771633  F        0        1
H        2.62241979       0.64062076      -3.38335070  F        0        1
H        1.51698288      -0.00424577      -4.63271411  F        0        1
H        2.24152384      -2.28251764      -4.22763340  F        0        1
H        3.70314486      -1.52377042      -3.53562342  F        0        1
C       -3.04804256       3.66765782       0.77319387  F        0        1
C       -3.16980825       4.00623768      -0.71504106  F        0        1
O       -2.90351405       2.74546550      -1.35684709  F        0        1
C       -2.36943855       1.90390679      -0.47546801  F        0        1
O       -2.36339784       2.40210837       0.76023268  F        0        1
O       -1.94676321       0.81337965      -0.76360700  F        0        1
H       -2.44503174       4.37870346       1.33418975  F        0        1
H       -4.01384531       3.52816067       1.26050513  F        0        1
H       -4.16386028       4.33803653      -1.00777375  F        0        1
H       -2.42071450       4.72359021      -1.05231456  F        0        1
C       -2.10825924      -3.20688735       4.10913149  F        0        1
C       -2.53692521      -3.78134883       2.75784001  F        0        1
O       -2.23626012      -2.70668571       1.84644911  F        0        1
C       -1.42607932      -1.83365434       2.44636144  F        0        1
O       -1.24561375      -2.11614301       3.73395871  F        0        1
O       -0.91685772      -0.89549562       1.89047608  F        0        1
H       -2.94117011      -2.79986079       4.68405247  F        0        1
H       -1.53698837      -3.90294150       4.71962533  F        0        1
H       -1.95451943      -4.65365922       2.45841886  F        0        1
H       -3.60052535      -4.00063144       2.69263348  F        0        1
41
Properties=species:S:1:pos:R:3:is_solvent:L:1:group_label:I:1:tags:I:1 Coordinates=T from=T ORCA-job=T Li1EC4_r07_charge_1_spin_1_liquid_t_traj_1_frame_0001=T E=T -1378.037888345936=T solvent_indices_0based="_JSON [1, 2, 3, 4, 5, 6, 7, 8, 9, 10]" complex_indices_0based="_JSON [0, 11, 12, 13, 14, 15, 16, 17, 18, 19, 20, 21, 22, 23, 24, 25, 26, 27, 28, 29, 30, 31, 32, 33, 34, 35, 36, 37, 38, 39, 40]" complex_indices_1based="_JSON [1, 12, 13, 14, 15, 16, 17, 18, 19, 20, 21, 22, 23, 24, 25, 26, 27, 28, 29, 30, 31, 32, 33, 34, 35, 36, 37, 38, 39, 40, 41]" pbc="F F F"
Li      -0.64782800      -0.24984900       0.12774200  F        0        1
C        4.29458100       1.04144700       0.00408400  T        1        2
C        4.18876100       1.88661300       1.27326500  T        1        2
O        2.82453800       2.33571600       1.24416700  T        1        2
C        2.11856300       1.57697500       0.39923400  T        1        2
O        2.91997700       0.74901300      -0.30147400  T        1        2
O        0.93044500       1.62769800       0.27231900  T        1        2
H        4.72506300       1.59238300      -0.83444300  T        1        2
H        4.82562000       0.10237600       0.14778600  T        1        2
H        4.33970300       1.30518400       2.18422500  T        1        2
H        4.84119400       2.75736400       1.27386600  T        1        2
C        1.95737900      -0.18125700      -3.65393000  F        0        1
C        2.61587100      -1.55150100      -3.50928600  F        0        1
O        2.20096300      -1.96044300      -2.19204700  F        0        1
C        1.15786400      -1.22146000      -1.81726800  F        0        1
O        0.90054000      -0.23904900      -2.68034300  F        0        1
O        0.51822900      -1.42654900      -0.81771600  F        0        1
H        2.62242000       0.64062100      -3.38335100  F        0        1
H        1.51698300      -0.00424600      -4.63271400  F        0        1
H        2.24152400      -2.28251800      -4.22763300  F        0        1
H        3.70314500      -1.52377000      -3.53562300  F        0        1
C       -3.04804300       3.66765800       0.77319400  F        0        1
C       -3.16980800       4.00623800      -0.71504100  F        0        1
O       -2.90351400       2.74546500      -1.35684700  F        0        1
C       -2.36943900       1.90390700      -0.47546800  F        0        1
O       -2.36339800       2.40210800       0.76023300  F        0        1
O       -1.94676300       0.81338000      -0.76360700  F        0        1
H       -2.44503200       4.37870300       1.33419000  F        0        1
H       -4.01384500       3.52816100       1.26050500  F        0        1
H       -4.16386000       4.33803700      -1.00777400  F        0        1
H       -2.42071400       4.72359000      -1.05231500  F        0        1
C       -2.10825900      -3.20688700       4.10913100  F        0        1
C       -2.53692500      -3.78134900       2.75784000  F        0        1
O       -2.23626000      -2.70668600       1.84644900  F        0        1
C       -1.42607900      -1.83365400       2.44636100  F        0        1
O       -1.24561400      -2.11614300       3.73395900  F        0        1
O       -0.91685800      -0.89549600       1.89047600  F        0        1
H       -2.94117000      -2.79986100       4.68405200  F        0        1
H       -1.53698800      -3.90294200       4.71962500  F        0        1
H       -1.95451900      -4.65365900       2.45841900  F        0        1
H       -3.60052500      -4.00063100       2.69263300  F        0        1
41
Properties=species:S:1:pos:R:3:is_solvent:L:1:group_label:I:1:tags:I:1 Coordinates=T from=T ORCA-job=T Li1EC4_r07_charge_1_spin_1_liquid_t_traj_1_frame_0002=T E=T -1378.044118402059=T solvent_indices_0based="_JSON [1, 2, 3, 4, 5, 6, 7, 8, 9, 10]" complex_indices_0based="_JSON [0, 11, 12, 13, 14, 15, 16, 17, 18, 19, 20, 21, 22, 23, 24, 25, 26, 27, 28, 29, 30, 31, 32, 33, 34, 35, 36, 37, 38, 39, 40]" complex_indices_1based="_JSON [1, 12, 13, 14, 15, 16, 17, 18, 19, 20, 21, 22, 23, 24, 25, 26, 27, 28, 29, 30, 31, 32, 33, 34, 35, 36, 37, 38, 39, 40, 41]" pbc="F F F"
Li       0.05896107      -0.26357797       0.63797465  F        0        1
C        3.70608253       1.68042779       1.49106749  T        1        2
C        2.60609986       0.75993146       2.01541170  T        1        2
O        1.47477525       1.15203417       1.20900843  T        1        2
C        1.92231306       1.77495817       0.09373440  T        1        2
O        3.21975337       2.05139176       0.18541314  T        1        2
O        1.21826008       2.01849198      -0.84265035  T        1        2
H        3.82140636       2.58993961       2.08270032  T        1        2
H        4.66712064       1.18563643       1.36965202  T        1        2
H        2.80518527      -0.29536871       1.82637076  T        1        2
H        2.35285675       0.91751517       3.06070327  T        1        2
C        0.64782261      -0.00136040      -3.83763299  F        0        1
C        2.11533510      -0.42346878      -3.90290192  F        0        1
O        2.43241181      -0.67164450      -2.51817395  F        0        1
C        1.30432298      -0.76876013      -1.82381776  F        0        1
O        0.22824359      -0.52780286      -2.56391176  F        0        1
O        1.26877904      -1.04339610      -0.64679225  F        0        1
H        0.51698490       1.08108122      -3.81034870  F        0        1
H        0.02698189      -0.44264166      -4.61399807  F        0        1
H        2.27055491      -1.34925820      -4.45845482  F        0        1
H        2.78050429       0.35483243      -4.27060035  F        0        1
C       -1.47580980       4.01954274      -0.55640788  F        0        1
C       -2.12033064       3.46353767      -1.82413291  F        0        1
O       -1.91226633       2.04465840      -1.68657140  F        0        1
C       -1.59394456       1.77043102      -0.42388118  F        0        1
O       -1.45923270       2.87195023       0.31270774  F        0        1
O       -1.46289231       0.65316346       0.00801466  F        0        1
H       -0.44491514       4.33881399      -0.71364382  F        0        1
H       -2.05350997       4.80689852      -0.07728154  F        0        1
H       -3.19445292       3.64756502      -1.87642906  F        0        1
H       -1.63669500       3.79568203      -2.74030918  F        0        1
C       -1.53874932      -3.30634836       4.48433032  F        0        1
C       -2.22600906      -3.61582726       3.15280956  F        0        1
O       -1.71486593      -2.58498037       2.28349254  F        0        1
C       -0.65619608      -2.01419436       2.85186292  F        0        1
O       -0.44788842      -2.44961359       4.09001945  F        0        1
O        0.04090556      -1.19392134       2.30743357  F        0        1
H       -2.17387563      -2.75025911       5.17483622  F        0        1
H       -1.12484159      -4.18274750       4.97825461  F        0        1
H       -1.94006132      -4.58260205       2.73701869  F        0        1
H       -3.30968308      -3.52797443       3.18848889  F        0        1
41
Properties=species:S:1:pos:R:3:is_solvent:L:1:group_label:I:1:tags:I:1 Coordinates=T from=T ORCA-job=T Li1EC4_r07_charge_1_spin_1_liquid_t_traj_1_frame_0002=T E=T -1378.044118402059=T solvent_indices_0based="_JSON [1, 2, 3, 4, 5, 6, 7, 8, 9, 10]" complex_indices_0based="_JSON [0, 11, 12, 13, 14, 15, 16, 17, 18, 19, 20, 21, 22, 23, 24, 25, 26, 27, 28, 29, 30, 31, 32, 33, 34, 35, 36, 37, 38, 39, 40]" complex_indices_1based="_JSON [1, 12, 13, 14, 15, 16, 17, 18, 19, 20, 21, 22, 23, 24, 25, 26, 27, 28, 29, 30, 31, 32, 33, 34, 35, 36, 37, 38, 39, 40, 41]" pbc="F F F"
Li       0.05896100      -0.26357800       0.63797500  F        0        1
C        3.70608300       1.68042800       1.49106700  T        1        2
C        2.60610000       0.75993100       2.01541200  T        1        2
O        1.47477500       1.15203400       1.20900800  T        1        2
C        1.92231300       1.77495800       0.09373400  T        1        2
O        3.21975300       2.05139200       0.18541300  T        1        2
O        1.21826000       2.01849200      -0.84265000  T        1        2
H        3.82140600       2.58994000       2.08270000  T        1        2
H        4.66712100       1.18563600       1.36965200  T        1        2
H        2.80518500      -0.29536900       1.82637100  T        1        2
H        2.35285700       0.91751500       3.06070300  T        1        2
C        0.64782300      -0.00136000      -3.83763300  F        0        1
C        2.11533500      -0.42346900      -3.90290200  F        0        1
O        2.43241200      -0.67164500      -2.51817400  F        0        1
C        1.30432300      -0.76876000      -1.82381800  F        0        1
O        0.22824400      -0.52780300      -2.56391200  F        0        1
O        1.26877900      -1.04339600      -0.64679200  F        0        1
H        0.51698500       1.08108100      -3.81034900  F        0        1
H        0.02698200      -0.44264200      -4.61399800  F        0        1
H        2.27055500      -1.34925800      -4.45845500  F        0        1
H        2.78050400       0.35483200      -4.27060000  F        0        1
C       -1.47581000       4.01954300      -0.55640800  F        0        1
C       -2.12033100       3.46353800      -1.82413300  F        0        1
O       -1.91226600       2.04465800      -1.68657100  F        0        1
C       -1.59394500       1.77043100      -0.42388100  F        0        1
O       -1.45923300       2.87195000       0.31270800  F        0        1
O       -1.46289200       0.65316300       0.00801500  F        0        1
H       -0.44491500       4.33881400      -0.71364400  F        0        1
H       -2.05351000       4.80689900      -0.07728200  F        0        1
H       -3.19445300       3.64756500      -1.87642900  F        0        1
H       -1.63669500       3.79568200      -2.74030900  F        0        1
C       -1.53874900      -3.30634800       4.48433000  F        0        1
C       -2.22600900      -3.61582700       3.15281000  F        0        1
O       -1.71486600      -2.58498000       2.28349300  F        0        1
C       -0.65619600      -2.01419400       2.85186300  F        0        1
O       -0.44788800      -2.44961400       4.09001900  F        0        1
O        0.04090600      -1.19392100       2.30743400  F        0        1
H       -2.17387600      -2.75025900       5.17483600  F        0        1
H       -1.12484200      -4.18274800       4.97825500  F        0        1
H       -1.94006100      -4.58260200       2.73701900  F        0        1
H       -3.30968300      -3.52797400       3.18848900  F        0        1
41
Properties=species:S:1:pos:R:3:is_solvent:L:1:group_label:I:1:tags:I:1 Coordinates=T from=T ORCA-job=T Li1EC4_r07_charge_1_spin_1_liquid_t_traj_1_frame_0003=T E=T -1378.038049478337=T solvent_indices_0based="_JSON [1, 2, 3, 4, 5, 6, 7, 8, 9, 10]" complex_indices_0based="_JSON [0, 11, 12, 13, 14, 15, 16, 17, 18, 19, 20, 21, 22, 23, 24, 25, 26, 27, 28, 29, 30, 31, 32, 33, 34, 35, 36, 37, 38, 39, 40]" complex_indices_1based="_JSON [1, 12, 13, 14, 15, 16, 17, 18, 19, 20, 21, 22, 23, 24, 25, 26, 27, 28, 29, 30, 31, 32, 33, 34, 35, 36, 37, 38, 39, 40, 41]" pbc="F F F"
Li      -0.83991428      -0.70321487       0.62378134  F        0        1
C        4.45769445       2.65786879      -0.52995420  T        1        2
C        3.68620734       3.38057202       0.57349005  T        1        2
O        2.31401810       3.11617301       0.22653588  T        1        2
C        2.26295222       2.07503499      -0.62298108  T        1        2
O        3.48874768       1.72272074      -1.03449417  T        1        2
O        1.25048409       1.54048048      -0.97220445  T        1        2
H        4.75560266       3.31859259      -1.34568959  T        1        2
H        5.31801306       2.10060216      -0.16490027  T        1        2
H        3.87581692       2.96652634       1.56492174  T        1        2
H        3.84042106       4.45768065       0.58062282  T        1        2
C        1.36147259      -0.77604791      -3.31228925  F        0        1
C        2.74327455      -1.18209304      -2.79573428  F        0        1
O        2.53164520      -1.31345609      -1.37714346  F        0        1
C        1.22955922      -1.29879920      -1.12455092  F        0        1
O        0.49697689      -1.13797674      -2.22045457  F        0        1
O        0.76317276      -1.43741584      -0.01800292  F        0        1
H        1.26663516       0.29815752      -3.46970548  F        0        1
H        1.04538293      -1.32476907      -4.19689712  F        0        1
H        3.08081432      -2.14572265      -3.17921057  F        0        1
H        3.50497585      -0.42221149      -2.95546546  F        0        1
C       -0.96896951       3.89669754       0.75751767  F        0        1
C       -1.15814750       4.05533032      -0.75158138  F        0        1
O       -1.68471964       2.77580146      -1.14610523  F        0        1
C       -1.45411638       1.89591769      -0.17983185  F        0        1
O       -0.99251581       2.46827786       0.93136162  F        0        1
O       -1.65835807       0.71238471      -0.28555150  F        0        1
H       -0.01135115       4.26793809       1.11463215  F        0        1
H       -1.78645074       4.32434626       1.33953131  F        0        1
H       -1.87871118       4.82271172      -1.02651367  F        0        1
H       -0.21669618       4.21011172      -1.27980732  F        0        1
C       -3.18757813      -3.58795287       4.27611226  F        0        1
C       -3.01985337      -4.40581209       2.99435656  F        0        1
O       -2.54255780      -3.42522600       2.05146349  F        0        1
C       -2.12944937      -2.34503822       2.71169041  F        0        1
O       -2.39343196      -2.41345369       4.01159728  F        0        1
O       -1.57902241      -1.40846754       2.19052193  F        0        1
H       -4.21574188      -3.26860652       4.45033775  F        0        1
H       -2.79018767      -4.07640570       5.16310944  F        0        1
H       -2.26484548      -5.18797524       3.08252849  F        0        1
H       -3.95028406      -4.82249822       2.61481019  F        0        1
41
Properties=species:S:1:pos:R:3:is_solvent:L:1:group_label:I:1:tags:I:1 Coordinates=T from=T ORCA-job=T Li1EC4_r07_charge_1_spin_1_liquid_t_traj_1_frame_0003=T E=T -1378.038049478337=T solvent_indices_0based="_JSON [1, 2, 3, 4, 5, 6, 7, 8, 9, 10]" complex_indices_0based="_JSON [0, 11, 12, 13, 14, 15, 16, 17, 18, 19, 20, 21, 22, 23, 24, 25, 26, 27, 28, 29, 30, 31, 32, 33, 34, 35, 36, 37, 38, 39, 40]" complex_indices_1based="_JSON [1, 12, 13, 14, 15, 16, 17, 18, 19, 20, 21, 22, 23, 24, 25, 26, 27, 28, 29, 30, 31, 32, 33, 34, 35, 36, 37, 38, 39, 40, 41]" pbc="F F F"
Li      -0.83991400      -0.70321500       0.62378100  F        0        1
C        4.45769400       2.65786900      -0.52995400  T        1        2
C        3.68620700       3.38057200       0.57349000  T        1        2
O        2.31401800       3.11617300       0.22653600  T        1        2
C        2.26295200       2.07503500      -0.62298100  T        1        2
O        3.48874800       1.72272100      -1.03449400  T        1        2
O        1.25048400       1.54048000      -0.97220400  T        1        2
H        4.75560300       3.31859300      -1.34569000  T        1        2
H        5.31801300       2.10060200      -0.16490000  T        1        2
H        3.87581700       2.96652600       1.56492200  T        1        2
H        3.84042100       4.45768100       0.58062300  T        1        2
C        1.36147300      -0.77604800      -3.31228900  F        0        1
C        2.74327500      -1.18209300      -2.79573400  F        0        1
O        2.53164500      -1.31345600      -1.37714300  F        0        1
C        1.22955900      -1.29879900      -1.12455100  F        0        1
O        0.49697700      -1.13797700      -2.22045500  F        0        1
O        0.76317300      -1.43741600      -0.01800300  F        0        1
H        1.26663500       0.29815800      -3.46970500  F        0        1
H        1.04538300      -1.32476900      -4.19689700  F        0        1
H        3.08081400      -2.14572300      -3.17921100  F        0        1
H        3.50497600      -0.42221100      -2.95546500  F        0        1
C       -0.96897000       3.89669800       0.75751800  F        0        1
C       -1.15814700       4.05533000      -0.75158100  F        0        1
O       -1.68472000       2.77580100      -1.14610500  F        0        1
C       -1.45411600       1.89591800      -0.17983200  F        0        1
O       -0.99251600       2.46827800       0.93136200  F        0        1
O       -1.65835800       0.71238500      -0.28555100  F        0        1
H       -0.01135100       4.26793800       1.11463200  F        0        1
H       -1.78645100       4.32434600       1.33953100  F        0        1
H       -1.87871100       4.82271200      -1.02651400  F        0        1
H       -0.21669600       4.21011200      -1.27980700  F        0        1
C       -3.18757800      -3.58795300       4.27611200  F        0        1
C       -3.01985300      -4.40581200       2.99435700  F        0        1
O       -2.54255800      -3.42522600       2.05146300  F        0        1
C       -2.12944900      -2.34503800       2.71169000  F        0        1
O       -2.39343200      -2.41345400       4.01159700  F        0        1
O       -1.57902200      -1.40846800       2.19052200  F        0        1
H       -4.21574200      -3.26860700       4.45033800  F        0        1
H       -2.79018800      -4.07640600       5.16310900  F        0        1
H       -2.26484500      -5.18797500       3.08252800  F        0        1
H       -3.95028400      -4.82249800       2.61481000  F        0        1
41
Properties=species:S:1:pos:R:3:is_solvent:L:1:group_label:I:1:tags:I:1 Coordinates=T from=T ORCA-job=T Li1EC4_r07_charge_1_spin_1_liquid_t_traj_1_frame_0004=T E=T -1378.038694065524=T solvent_indices_0based="_JSON [1, 2, 3, 4, 5, 6, 7, 8, 9, 10]" complex_indices_0based="_JSON [0, 11, 12, 13, 14, 15, 16, 17, 18, 19, 20, 21, 22, 23, 24, 25, 26, 27, 28, 29, 30, 31, 32, 33, 34, 35, 36, 37, 38, 39, 40]" complex_indices_1based="_JSON [1, 12, 13, 14, 15, 16, 17, 18, 19, 20, 21, 22, 23, 24, 25, 26, 27, 28, 29, 30, 31, 32, 33, 34, 35, 36, 37, 38, 39, 40, 41]" pbc="F F F"
Li      -1.19609838      -0.62176585       0.82906071  F        0        1
C        4.33901952       3.31024704      -1.98554175  T        1        2
C        3.79304521       4.38790738      -1.05095588  T        1        2