41
Properties=species:S:1:pos:R:3:is_solvent:L:1:group_label:I:1:tags:I:1 Coordinates=T from=T ORCA-job=T Li1EC4_r10_charge_1_spin_1_liquid_t_traj_2_frame_0000=T E=T -1378.043725077926=T solvent_indices_0based="_JSON [11, 12, 13, 14, 15, 16, 17, 18, 19, 20]" complex_indices_0based="_JSON [0, 1, 2, 3, 4, 5, 6, 7, 8, 9, 10, 21, 22, 23, 24, 25, 26, 27, 28, 29, 30, 31, 32, 33, 34, 35, 36, 37, 38, 39, 40]" complex_indices_1based="_JSON [1, 2, 3, 4, 5, 6, 7, 8, 9, 10, 11, 22, 23, 24, 25, 26, 27, 28, 29, 30, 31, 32, 33, 34, 35, 36, 37, 38, 39, 40, 41]" pbc="F F F"
Li       0.57982907       0.23386299       0.56475700  F        0        1
C        5.31777203      -0.95214364      -1.01710192  F        0        1
C        5.14112046       0.52367430      -0.65816399  F        0        1
O        3.79417419       0.56973524      -0.15281388  F        0        1
C        3.14980157      -0.54375680      -0.51495259  F        0        1
O        3.96071401      -1.42358036      -1.10024749  F        0        1
O        1.97621972      -0.73276352      -0.33708506  F        0        1
H        5.79854777      -1.11480403      -1.97941651  F        0        1
H        5.83013318      -1.52182269      -0.24036948  F        0        1
H        5.81548712       0.86664442       0.12379483  F        0        1
H        5.20410889       1.18267349      -1.52549567  F        0        1
C       -0.54430342      -4.24438398       1.44008190  T        1        2
C       -2.05940965      -4.11034969       1.28348725  T        1        2
O       -2.20823833      -2.77916198       0.75652649  T        1        2
C       -1.07531760      -2.10240184       0.94086727  T        1        2
O       -0.10232508      -2.87477574       1.42877701  T        1        2
O       -0.95080203      -0.93096278       0.69759214  T        1        2
H       -0.23993336      -4.69776398       2.38114474  T        1        2
H       -0.07290324      -4.76208755       0.60336281  T        1        2
H       -2.49025881      -4.81240496       0.57271648  T        1        2
H       -2.59321363      -4.16322471       2.23358160  T        1        2
C       -2.05469585       4.46460685      -0.58044740  F        0        1
C       -2.79761571       3.41750622       0.24895815  F        0        1
O       -1.92905285       2.27463179       0.16501713  F        0        1
C       -0.72607944       2.66353287      -0.25809823  F        0        1
O       -0.70856513       3.95382956      -0.60202632  F        0        1
O        0.23316855       1.94158962      -0.32371812  F        0        1
H       -2.41385640       4.52722503      -1.60875649  F        0        1
H       -2.04192445       5.45457581      -0.12913078  F        0        1
H       -2.89644082       3.69551897       1.29956269  F        0        1
H       -3.76867463       3.14420926      -0.15851691  F        0        1
C        2.36914645       3.68409499       3.92191959  F        0        1
C        1.20254072       4.21179150       3.08783789  F        0        1
O        0.59932102       3.00362304       2.58886201  F        0        1
C        1.47198057       1.99303411       2.71255186  F        0        1
O        2.55531750       2.35678410       3.39960828  F        0        1
O        1.29846025       0.89305959       2.26582653  F        0        1
H        3.29247357       4.24278290       3.78402965  F        0        1
H        2.13316473       3.60504061       4.98419901  F        0        1
H        0.46050970       4.75423472       3.67027828  F        0        1
H        1.52559672       4.80991953       2.23400730  F        0        1
41
Properties=species:S:1:pos:R:3:is_solvent:L:1:group_label:I:1:tags:I:1 Coordinates=T from=T ORCA-job=T Li1EC4_r10_charge_1_spin_1_liquid_t_traj_2_frame_0000=T E=T -1378.043725077926=T solvent_indices_0based="_JSON [11, 12, 13, 14, 15, 16, 17, 18, 19, 20]" complex_indices_0based="_JSON [0, 1, 2, 3, 4, 5, 6, 7, 8, 9, 10, 21, 22, 23, 24, 25, 26, 27, 28, 29, 30, 31, 32, 33, 34, 35, 36, 37, 38, 39, 40]" complex_indices_1based="_JSON [1, 2, 3, 4, 5, 6, 7, 8, 9, 10, 11, 22, 23, 24, 25, 26, 27, 28, 29, 30, 31, 32, 33, 34, 35, 36, 37, 38, 39, 40, 41]" pbc="F F F"
Li       0.57982900       0.23386300       0.56475700  F        0        1
C        5.31777200      -0.95214400      -1.01710200  F        0        1
C        5.14112000       0.52367400      -0.65816400  F        0        1
O        3.79417400       0.56973500      -0.15281400  F        0        1
C        3.14980200      -0.54375700      -0.51495300  F        0        1
O        3.96071400      -1.42358000      -1.10024700  F        0        1
O        1.97622000      -0.73276400      -0.33708500  F        0        1
H        5.79854800      -1.11480400      -1.97941700  F        0        1
H        5.83013300      -1.52182300      -0.24036900  F        0        1
H        5.81548700       0.86664400       0.12379500  F        0        1
H        5.20410900       1.18267300      -1.52549600  F        0        1
C       -0.54430300      -4.24438400       1.44008200  T        1        2
C       -2.05941000      -4.11035000       1.28348700  T        1        2
O       -2.20823800      -2.77916200       0.75652600  T        1        2
C       -1.07531800      -2.10240200       0.94086700  T        1        2
O       -0.10232500      -2.87477600       1.42877700  T        1        2
O       -0.95080200      -0.93096300       0.69759200  T        1        2
H       -0.23993300      -4.69776400       2.38114500  T        1        2
H       -0.07290300      -4.76208800       0.60336300  T        1        2
H       -2.49025900      -4.81240500       0.57271600  T        1        2
H       -2.59321400      -4.16322500       2.23358200  T        1        2
C       -2.05469600       4.46460700      -0.58044700  F        0        1
C       -2.79761600       3.41750600       0.24895800  F        0        1
O       -1.92905300       2.27463200       0.16501700  F        0        1
C       -0.72607900       2.66353300      -0.25809800  F        0        1
O       -0.70856500       3.95383000      -0.60202600  F        0        1
O        0.23316900       1.94159000      -0.32371800  F        0        1
H       -2.41385600       4.52722500      -1.60875600  F        0        1
H       -2.04192400       5.45457600      -0.12913100  F        0        1
H       -2.89644100       3.69551900       1.29956300  F        0        1
H       -3.76867500       3.14420900      -0.15851700  F        0        1
C        2.36914600       3.68409500       3.92192000  F        0        1
C        1.20254100       4.21179100       3.08783800  F        0        1
O        0.59932100       3.00362300       2.58886200  F        0        1
C        1.47198100       1.99303400       2.71255200  F        0        1
O        2.55531800       2.35678400       3.39960800  F        0        1
O        1.29846000       0.89306000       2.26582700  F        0        1
H        3.29247400       4.24278300       3.78403000  F        0        1
H        2.13316500       3.60504100       4.98419900  F        0        1
H        0.46051000       4.75423500       3.67027800  F        0        1
H        1.52559700       4.80992000       2.23400700  F        0        1
41
Properties=species:S:1:pos:R:3:is_solvent:L:1:group_label:I:1:tags:I:1 Coordinates=T from=T ORCA-job=T Li1EC4_r10_charge_1_spin_1_liquid_t_traj_2_frame_0001=T E=T -1378.040965287166=T solvent_indices_0based="_JSON [11, 12, 13, 14, 15, 16, 17, 18, 19, 20]" complex_indices_0based="_JSON [0, 1, 2, 3, 4, 5, 6, 7, 8, 9, 10, 21, 22, 23, 24, 25, 26, 27, 28, 29, 30, 31, 32, 33, 34, 35, 36, 37, 38, 39, 40]" complex_indices_1based="_JSON [1, 2, 3, 4, 5, 6, 7, 8, 9, 10, 11, 22, 23, 24, 25, 26, 27, 28, 29, 30, 31, 32, 33, 34, 35, 36, 37, 38, 39, 40, 41]" pbc="F F F"
Li       1.30871641       1.17717486       1.57011927  F        0        1
C        3.23043707      -1.47572614      -2.30544841  F        0        1
C        3.54218895       0.02095553      -2.27394943  F        0        1
O        3.12299410       0.40205791      -0.94904562  F        0        1
C        2.33923892      -0.54526106      -0.44746131  F        0        1
O        2.28624507      -1.62565100      -1.22497811  F        0        1
O        1.74331685      -0.44867222       0.59684923  F        0        1
H        2.75451181      -1.80524397      -3.22641938  F        0        1
H        4.09946873      -2.09756976      -2.08696458  F        0        1
H        4.59996617       0.25136160      -2.37934616  F        0        1
H        2.95645039       0.59619949      -2.99204583  F        0        1
C       -0.40611519      -2.85485157       1.79934266  T        1        2
C       -1.26722779      -2.82034817       0.53735865  T        1        2
O       -1.35757353      -1.41145927       0.25481821  T        1        2
C       -0.97359556      -0.71757699       1.33458122  T        1        2
O       -0.54535762      -1.51926931       2.31164854  T        1        2
O       -1.01183377       0.48095476       1.40996542  T        1        2
H       -0.76186980      -3.55358458       2.55351097  T        1        2
H        0.64940388      -3.02738425       1.58519373  T        1        2
H       -0.80679572      -3.31364799      -0.31629927  T        1        2
H       -2.27584270      -3.20448651       0.69738046  T        1        2
C       -1.99224487       2.84843052      -1.51542328  F        0        1
C       -1.45886328       1.46808674      -1.89874544  F        0        1
O       -0.12715167       1.48242049      -1.34893790  F        0        1
C       -0.05577678       2.44393407      -0.42107670  F        0        1
O       -1.11361682       3.24282816      -0.44541040  F        0        1
O        0.87256113       2.57345824       0.33705421  F        0        1
H       -1.90375429       3.58260202      -2.31743093  F        0        1
H       -3.01010725       2.83027824      -1.13197509  F        0        1
H       -2.00758808       0.65307953      -1.42648785  F        0        1
H       -1.38715482       1.31108585      -2.97309423  F        0        1
C        2.24213399       3.31075057       6.14830224  F        0        1
C        1.05343753       3.94309034       5.42235867  F        0        1
O        0.87020063       3.06816806       4.29169053  F        0        1
C        1.95478799       2.31117241       4.14185880  F        0        1
O        2.82343827       2.46693842       5.13440653  F        0        1
O        2.13251176       1.56540619       3.21066047  F        0        1
H        2.99366193       4.02915175       6.46835791  F        0        1
H        1.94512759       2.67860558       6.98602703  F        0        1
H        0.13537361       3.94716648       6.00592652  F        0        1
H        1.26442590       4.94469496       5.04573226  F        0        1
41
Properties=species:S:1:pos:R:3:is_solvent:L:1:group_label:I:1:tags:I:1 Coordinates=T from=T ORCA-job=T Li1EC4_r10_charge_1_spin_1_liquid_t_traj_2_frame_0001=T E=T -1378.040965287166=T solvent_indices_0based="_JSON [11, 12, 13, 14, 15, 16, 17, 18, 19, 20]" complex_indices_0based="_JSON [0, 1, 2, 3, 4, 5, 6, 7, 8, 9, 10, 21, 22, 23, 24, 25, 26, 27, 28, 29, 30, 31, 32, 33, 34, 35, 36, 37, 38, 39, 40]" complex_indices_1based="_JSON [1, 2, 3, 4, 5, 6, 7, 8, 9, 10, 11, 22, 23, 24, 25, 26, 27, 28, 29, 30, 31, 32, 33, 34, 35, 36, 37, 38, 39, 40, 41]" pbc="F F F"
Li       1.30871600       1.17717500       1.57011900  F        0        1
C        3.23043700      -1.47572600      -2.30544800  F        0        1
C        3.54218900       0.02095600      -2.27394900  F        0        1
O        3.12299400       0.40205800      -0.94904600  F        0        1
C        2.33923900      -0.54526100      -0.44746100  F        0        1
O        2.28624500      -1.62565100      -1.22497800  F        0        1
O        1.74331700      -0.44867200       0.59684900  F        0        1
H        2.75451200      -1.80524400      -3.22641900  F        0        1
H        4.09946900      -2.09757000      -2.08696500  F        0        1
H        4.59996600       0.25136200      -2.37934600  F        0        1
H        2.95645000       0.59619900      -2.99204600  F        0        1
C       -0.40611500      -2.85485200       1.79934300  T        1        2
C       -1.26722800      -2.82034800       0.53735900  T        1        2
O       -1.35757400      -1.41145900       0.25481800  T        1        2
C       -0.97359600      -0.71757700       1.33458100  T        1        2
O       -0.54535800      -1.51926900       2.31164900  T        1        2
O       -1.01183400       0.48095500       1.40996500  T        1        2
H       -0.76187000      -3.55358500       2.55351100  T        1        2
H        0.64940400      -3.02738400       1.58519400  T        1        2
H       -0.80679600      -3.31364800      -0.31629900  T        1        2
H       -2.27584300      -3.20448700       0.69738000  T        1        2
C       -1.99224500       2.84843100      -1.51542300  F        0        1
C       -1.45886300       1.46808700      -1.89874500  F        0        1
O       -0.12715200       1.48242000      -1.34893800  F        0        1
C       -0.05577700       2.44393400      -0.42107700  F        0        1
O       -1.11361700       3.24282800      -0.44541000  F        0        1
O        0.87256100       2.57345800       0.33705400  F        0        1
H       -1.90375400       3.58260200      -2.31743100  F        0        1
H       -3.01010700       2.83027800      -1.13197500  F        0        1
H       -2.00758800       0.65308000      -1.42648800  F        0        1
H       -1.38715500       1.31108600      -2.97309400  F        0        1
C        2.24213400       3.31075100       6.14830200  F        0        1
C        1.05343800       3.94309000       5.42235900  F        0        1
O        0.87020100       3.06816800       4.29169100  F        0        1
C        1.95478800       2.31117200       4.14185900  F        0        1
O        2.82343800       2.46693800       5.13440700  F        0        1
O        2.13251200       1.56540600       3.21066000  F        0        1
H        2.99366200       4.02915200       6.46835800  F        0        1
H        1.94512800       2.67860600       6.98602700  F        0        1
H        0.13537400       3.94716600       6.00592700  F        0        1
H        1.26442600       4.94469500       5.04573200  F        0        1
41
Properties=species:S:1:pos:R:3:is_solvent:L:1:group_label:I:1:tags:I:1 Coordinates=T from=T ORCA-job=T Li1EC4_r10_charge_1_spin_1_liquid_t_traj_2_frame_0002=T E=T -1378.042605959414=T solvent_indices_0based="_JSON [11, 12, 13, 14, 15, 16, 17, 18, 19, 20]" complex_indices_0based="_JSON [0, 1, 2, 3, 4, 5, 6, 7, 8, 9, 10, 21, 22, 23, 24, 25, 26, 27, 28, 29, 30, 31, 32, 33, 34, 35, 36, 37, 38, 39, 40]" complex_indices_1based="_JSON [1, 2, 3, 4, 5, 6, 7, 8, 9, 10, 11, 22, 23, 24, 25, 26, 27, 28, 29, 30, 31, 32, 33, 34, 35, 36, 37, 38, 39, 40, 41]" pbc="F F F"
Li       0.77250692       0.42711191       1.48765953  F        0        1
C        3.53275825      -1.01945905      -2.49313830  F        0        1
C        3.67427060       0.43398611      -2.04243809  F        0        1
O        3.03796032       0.42491067      -0.75032290  F        0        1
C        2.28227122      -0.66520766      -0.64609594  F        0        1
O        2.45849790      -1.50376414      -1.66157885  F        0        1
O        1.52587157      -0.87331036       0.27113708  F        0        1
H        3.23675727      -1.13022274      -3.53399489  F        0        1
H        4.41917092      -1.62080703      -2.28734393  F        0        1
H        4.70524492       0.75713154      -1.91620188  F        0        1
H        3.13311166       1.13427354      -2.68033228  F        0        1
C       -0.51514320      -2.14199601       2.53273295  T        1        2
C       -1.56889456      -3.03040927       1.87507215  T        1        2
O       -1.89867988      -2.30494451       0.67582441  T        1        2
C       -1.48334869      -1.04574783       0.78006941  T        1        2
O       -0.78203550      -0.85860158       1.93211649  T        1        2
O       -1.67177778      -0.17207192      -0.00893833  T        1        2
H       -0.63050851      -2.04726252       3.61001882  T        1        2
H        0.50517918      -2.43166961       2.27871237  T        1        2
H       -1.19575500      -4.01118361       1.58861671  T        1        2
H       -2.47519925      -3.13107846       2.47399121  T        1        2
C       -1.87912465       2.85350369      -1.83058310  F        0        1
C       -1.04504954       1.73677876      -2.46017370  F        0        1
O        0.06459354       1.61837063      -1.54800480  F        0        1
C       -0.27389651       2.18465626      -0.38516257  F        0        1
O       -1.38408975       2.90155391      -0.47984801  F        0        1
O        0.37164450       2.07305735       0.62763497  F        0        1
H       -1.71129001       3.82840854      -2.29010321  F        0        1
H       -2.94333140       2.63061529      -1.79522280  F        0        1
H       -1.56672460       0.78032043      -2.47946471  F        0        1
H       -0.65642004       1.98639444      -3.44549520  F        0        1
C        2.00310699       2.69789124       5.92243356  F        0        1
C        0.91416372       3.41636667       5.12398821  F        0        1
O        0.58178449       2.45430196       4.10429854  F        0        1
C        1.54058874       1.53261647       4.04000401  F        0        1
O        2.43667542       1.66621193       5.01315628  F        0        1
O        1.59253813       0.67046153       3.19841262  F        0        1
H        2.85928789       3.32521427       6.16061659  F        0        1
H        1.62606146       2.21742663       6.82614054  F        0        1
H        0.01691090       3.63017314       5.70081680  F        0        1
H        1.27059340       4.32284601       4.63319048  F        0        1
41
Properties=species:S:1:pos:R:3:is_solvent:L:1:group_label:I:1:tags:I:1 Coordinates=T from=T ORCA-job=T Li1EC4_r10_charge_1_spin_1_liquid_t_traj_2_frame_0002=T E=T -1378.042605959414=T solvent_indices_0based="_JSON [11, 12, 13, 14, 15, 16, 17, 18, 19, 20]" complex_indices_0based="_JSON [0, 1, 2, 3, 4, 5, 6, 7, 8, 9, 10, 21, 22, 23, 24, 25, 26, 27, 28, 29, 30, 31, 32, 33, 34, 35, 36, 37, 38, 39, 40]" complex_indices_1based="_JSON [1, 2, 3, 4, 5, 6, 7, 8, 9, 10, 11, 22, 23, 24, 25, 26, 27, 28, 29, 30, 31, 32, 33, 34, 35, 36, 37, 38, 39, 40, 41]" pbc="F F F"
Li       0.77250700       0.42711200       1.48766000  F        0        1
C        3.53275800      -1.01945900      -2.49313800  F        0        1
C        3.67427100       0.43398600      -2.04243800  F        0        1
O        3.03796000       0.42491100      -0.75032300  F        0        1
C        2.28227100      -0.66520800      -0.64609600  F        0        1
O        2.45849800      -1.50376400      -1.66157900  F        0        1
O        1.52587200      -0.87331000       0.27113700  F        0        1
H        3.23675700      -1.13022300      -3.53399500  F        0        1
H        4.41917100      -1.62080700      -2.28734400  F        0        1
H        4.70524500       0.75713200      -1.91620200  F        0        1
H        3.13311200       1.13427400      -2.68033200  F        0        1
C       -0.51514300      -2.14199600       2.53273300  T        1        2
C       -1.56889500      -3.03040900       1.87507200  T        1        2
O       -1.89868000      -2.30494500       0.67582400  T        1        2
C       -1.48334900      -1.04574800       0.78006900  T        1        2
O       -0.78203500      -0.85860200       1.93211600  T        1        2
O       -1.67177800      -0.17207200      -0.00893800  T        1        2
H       -0.63050900      -2.04726300       3.61001900  T        1        2
H        0.50517900      -2.43167000       2.27871200  T        1        2
H       -1.19575500      -4.01118400       1.58861700  T        1        2
H       -2.47519900      -3.13107800       2.47399100  T        1        2
C       -1.87912500       2.85350400      -1.83058300  F        0        1
C       -1.04505000       1.73677900      -2.46017400  F        0        1
O        0.06459400       1.61837100      -1.54800500  F        0        1
C       -0.27389700       2.18465600      -0.38516300  F        0        1
O       -1.38409000       2.90155400      -0.47984800  F        0        1
O        0.37164400       2.07305700       0.62763500  F        0        1
H       -1.71129000       3.82840900      -2.29010300  F        0        1
H       -2.94333100       2.63061500      -1.79522300  F        0        1
H       -1.56672500       0.78032000      -2.47946500  F        0        1
H       -0.65642000       1.98639400      -3.44549500  F        0        1
C        2.00310700       2.69789100       5.92243400  F        0        1
C        0.91416400       3.41636700       5.12398800  F        0        1
O        0.58178400       2.45430200       4.10429900  F        0        1
C        1.54058900       1.53261600       4.04000400  F        0        1
O        2.43667500       1.66621200       5.01315600  F        0        1
O        1.59253800       0.67046200       3.19841300  F        0        1
H        2.85928800       3.32521400       6.16061700  F        0        1
H        1.62606100       2.21742700       6.82614100  F        0        1
H        0.01691100       3.63017300       5.70081700  F        0        1
H        1.27059300       4.32284600       4.63319000  F        0        1
41
Properties=species:S:1:pos:R:3:is_solvent:L:1:group_label:I:1:tags:I:1 Coordinates=T from=T ORCA-job=T Li1EC4_r10_charge_1_spin_1_liquid_t_traj_2_frame_0003=T E=T -1378.033485035133=T solvent_indices_0based="_JSON [11, 12, 13, 14, 15, 16, 17, 18, 19, 20]" complex_indices_0based="_JSON [0, 1, 2, 3, 4, 5, 6, 7, 8, 9, 10, 21, 22, 23, 24, 25, 26, 27, 28, 29, 30, 31, 32, 33, 34, 35, 36, 37, 38, 39, 40]" complex_indices_1based="_JSON [1, 2, 3, 4, 5, 6, 7, 8, 9, 10, 11, 22, 23, 24, 25, 26, 27, 28, 29, 30, 31, 32, 33, 34, 35, 36, 37, 38, 39, 40, 41]" pbc="F F F"
Li       1.64000400       1.08037131       0.66930030  F        0        1
C        5.19570623      -1.18276008      -2.28439543  F        0        1
C        5.40063299       0.33007470      -2.18512382  F        0        1
O        4.39362654       0.72512750      -1.23188774  F        0        1
C        3.51343451      -0.26425200      -1.08563514  F        0        1
O        3.87375916      -1.36308975      -1.73998819  F        0        1
O        2.50283639      -0.17556127      -0.43540364  F        0        1
H        5.20134868      -1.55974275      -3.30481118  F        0        1
H        5.89638067      -1.75001793      -1.67042816  F        0        1
H        6.37472451       0.61560194      -1.79397381  F        0        1
H        5.20364881       0.85158049      -3.12254956  F        0        1
C       -1.86145651      -2.87928762       2.58583978  T        1        2
C       -3.29805204      -2.64635625       2.11944008  T        1        2
O       -3.14882377      -1.60425998       1.14232070  T        1        2
C       -1.95029939      -1.01651050       1.29402585  T        1        2
O       -1.20202316      -1.66075795       2.20372414  T        1        2
O       -1.59828928      -0.04400632       0.69409095  T        1        2
H       -1.76619797      -3.00396773       3.66268922  T        1        2
H       -1.37732842      -3.71004506       2.06930299  T        1        2
H       -3.74672880      -3.51359977       1.63895488  T        1        2
H       -3.94934940      -2.28292176       2.91645730  T        1        2
C       -2.75589432       2.55924476      -1.17684723  F        0        1
C       -2.12258939       1.45909693      -2.03639568  F        0        1
O       -0.73499775       1.50655999      -1.65691791  F        0        1
C       -0.60127273       2.24933641      -0.56499151  F        0        1
O       -1.71453899       2.88962248      -0.23993468  F        0        1
O        0.43201997       2.35299640       0.05372077  F        0        1
H       -3.00445052       3.46041273      -1.73778186  F        0        1
H       -3.62075650       2.21352474      -0.61414098  F        0        1
H       -2.50167499       0.46801908      -1.79237036  F        0        1
H       -2.18862675       1.64680035      -3.10634910  F        0        1
C        1.93996124       2.54621273       5.56578388  F        0        1
C        0.62819290       2.93237671       4.88156647  F        0        1
O        0.68115650       2.18388436       3.65097243  F        0        1
C        1.93199966       1.77858819       3.44011521  F        0        1
O        2.72734319       2.03192747       4.47432035  F        0        1
O        2.30666385       1.23963381       2.42827821  F        0        1
H        2.46982206       3.38843132       6.00541486  F        0        1
H        1.82068455       1.75105991       6.30303542  F        0        1
H       -0.26013351       2.62842880       5.43090934  F        0        1
H        0.57197061       3.99259688       4.63145957  F        0        1
41
Properties=species:S:1:pos:R:3:is_solvent:L:1:group_label:I:1:tags:I:1 Coordinates=T from=T ORCA-job=T Li1EC4_r10_charge_1_spin_1_liquid_t_traj_2_frame_0003=T E=T -1378.033485035133=T solvent_indices_0based="_JSON [11, 12, 13, 14, 15, 16, 17, 18, 19, 20]" complex_indices_0based="_JSON [0, 1, 2, 3, 4, 5, 6, 7, 8, 9, 10, 21, 22, 23, 24, 25, 26, 27, 28, 29, 30, 31, 32, 33, 34, 35, 36, 37, 38, 39, 40]" complex_indices_1based="_JSON [1, 2, 3, 4, 5, 6, 7, 8, 9, 10, 11, 22, 23, 24, 25, 26, 27, 28, 29, 30, 31, 32, 33, 34, 35, 36, 37, 38, 39, 40, 41]" pbc="F F F"
Li       1.64000400       1.08037100       0.66930000  F        0        1
C        5.19570600      -1.18276000      -2.28439500  F        0        1
C        5.40063300       0.33007500      -2.18512400  F        0        1
O        4.39362700       0.72512700      -1.23188800  F        0        1
C        3.51343500      -0.26425200      -1.08563500  F        0        1
O        3.87375900      -1.36309000      -1.73998800  F        0        1
O        2.50283600      -0.17556100      -0.43540400  F        0        1
H        5.20134900      -1.55974300      -3.30481100  F        0        1
H        5.89638100      -1.75001800      -1.67042800  F        0        1
H        6.37472500       0.61560200      -1.79397400  F        0        1
H        5.20364900       0.85158000      -3.12255000  F        0        1
C       -1.86145700      -2.87928800       2.58584000  T        1        2
C       -3.29805200      -2.64635600       2.11944000  T        1        2
O       -3.14882400      -1.60426000       1.14232100  T        1        2
C       -1.95029900      -1.01651100       1.29402600  T        1        2
O       -1.20202300      -1.66075800       2.20372400  T        1        2
O       -1.59828900      -0.04400600       0.69409100  T        1        2
H       -1.76619800      -3.00396800       3.66268900  T        1        2
H       -1.37732800      -3.71004500       2.06930300  T        1        2
H       -3.74672900      -3.51360000       1.63895500  T        1        2
H       -3.94934900      -2.28292200       2.91645700  T        1        2
C       -2.75589400       2.55924500      -1.17684700  F        0        1
C       -2.12258900       1.45909700      -2.03639600  F        0        1
O       -0.73499800       1.50656000      -1.65691800  F        0        1
C       -0.60127300       2.24933600      -0.56499200  F        0        1
O       -1.71453900       2.88962200      -0.23993500  F        0        1
O        0.43202000       2.35299600       0.05372100  F        0        1
H       -3.00445100       3.46041300      -1.73778200  F        0        1
H       -3.62075600       2.21352500      -0.61414100  F        0        1
H       -2.50167500       0.46801900      -1.79237000  F        0        1
H       -2.18862700       1.64680000      -3.10634900  F        0        1
C        1.93996100       2.54621300       5.56578400  F        0        1
C        0.62819300       2.93237700       4.88156600  F        0        1
O        0.68115600       2.18388400       3.65097200  F        0        1
C        1.93200000       1.77858800       3.44011500  F        0        1
O        2.72734300       2.03192700       4.47432000  F        0        1
O        2.30666400       1.23963400       2.42827800  F        0        1
H        2.46982200       3.38843100       6.00541500  F        0        1
H        1.82068500       1.75106000       6.30303500  F        0        1
H       -0.26013400       2.62842900       5.43090900  F        0        1
H        0.57197100       3.99259700       4.63146000  F        0        1
41
Properties=species:S:1:pos:R:3:is_solvent:L:1:group_label:I:1:tags:I:1 Coordinates=T from=T ORCA-job=T Li1EC4_r10_charge_1_spin_1_liquid_t_traj_2_frame_0004=T E=T -1378.025530118382=T solvent_indices_0based="_JSON [11, 12, 13, 14, 15, 16, 17, 18, 19, 20]" complex_indices_0based="_JSON [0, 1, 2, 3, 4, 5, 6, 7, 8, 9, 10, 21, 22, 23, 24, 25, 26, 27, 28, 29, 30, 31, 32, 33, 34, 35, 36, 37, 38, 39, 40]" complex_indices_1based="_JSON [1, 2, 3, 4, 5, 6, 7, 8, 9, 10, 11, 22, 23, 24, 25, 26, 27, 28, 29, 30, 31, 32, 33, 34, 35, 36, 37, 38, 39, 40, 41]" pbc="F F F"
Li       1.48711818       1.11630688       0.73368214  F        0        1
C        4.74884542      -1.40926407      -2.26501289  F        0        1
C        5.08442397       0.07347602      -2.10191332  F        0        1
O        4.11942859       0.50845156      -1.12244456  F        0        1