41
Properties=species:S:1:pos:R:3:is_solvent:L:1:group_label:I:1:tags:I:1 Coordinates=T from=T ORCA-job=T Li1EC4_r09_charge_1_spin_1_liquid_t_traj_4_frame_0000=T E=T -1378.044619737038=T solvent_indices_0based="_JSON [31, 32, 33, 34, 35, 36, 37, 38, 39, 40]" complex_indices_0based="_JSON [0, 1, 2, 3, 4, 5, 6, 7, 8, 9, 10, 11, 12, 13, 14, 15, 16, 17, 18, 19, 20, 21, 22, 23, 24, 25, 26, 27, 28, 29, 30]" complex_indices_1based="_JSON [1, 2, 3, 4, 5, 6, 7, 8, 9, 10, 11, 12, 13, 14, 15, 16, 17, 18, 19, 20, 21, 22, 23, 24, 25, 26, 27, 28, 29, 30, 31]" pbc="F F F"
Li       0.02990021       0.16857229       0.06310739  F        0        1
C        4.31227451      -0.82779916       2.61181259  F        0        1
C        4.16942060       0.63899136       2.20061327  F        0        1
O        2.90853593       0.65623210       1.50711932  F        0        1
C        2.53933195      -0.59403341       1.22398195  F        0        1
O        3.36342861      -1.49449988       1.75954930  F        0        1
O        1.57867695      -0.88032325       0.55871648  F        0        1
H        5.29970116      -1.24126818       2.41707992  F        0        1
H        4.02727292      -1.01020900       3.64880450  F        0        1
H        4.10789301       1.32557220       3.04244108  F        0        1
H        4.94569753       0.96515230       1.50699865  F        0        1
C       -2.47194469       3.65474692       2.75804290  F        0        1
C       -2.93314405       3.45436701       1.31429927  F        0        1
O       -2.28691718       2.22284257       0.94399584  F        0        1
C       -1.30516301       1.96349812       1.81042000  F        0        1
O       -1.30967160       2.80881406       2.84061441  F        0        1
O       -0.51125485       1.06844557       1.68231664  F        0        1
H       -2.17065253       4.67546865       2.98380293  F        0        1
H       -3.20050704       3.30726510       3.49203006  F        0        1
H       -4.00833234       3.32372602       1.21148226  F        0        1
H       -2.58293082       4.23909056       0.64213576  F        0        1
C       -1.98023152      -3.98189651       0.84353721  F        0        1
C       -2.21156910      -4.33571055      -0.62678345  F        0        1
O       -2.09302085      -3.06170018      -1.28619293  F        0        1
C       -1.52056182      -2.18681357      -0.45923214  F        0        1
O       -1.35877356      -2.68599419       0.76709249  F        0        1
O       -1.19492766      -1.07503140      -0.78430461  F        0        1
H       -2.90713008      -3.88395860       1.41037462  F        0        1
H       -1.29957316      -4.66003800       1.35409841  F        0        1
H       -1.44755882      -5.00161631      -1.03021330  F        0        1
H       -3.20235994      -4.73729243      -0.82898084  F        0        1
C        0.53982711       0.61103993      -4.49136123  T        1        2
C        0.31580550       2.11738972      -4.61597881  T        1        2
O       -0.05409675       2.49325276      -3.27579389  T        1        2
C        0.29397765       1.51893169      -2.43484927  T        1        2
O        0.74746377       0.44044790      -3.07729657  T        1        2
O        0.21294196       1.60715976      -1.23760804  T        1        2
H       -0.33398496       0.02533191      -4.78107441  T        1        2
H        1.42329376       0.25346925      -5.01588249  T        1        2
H        1.22141076       2.66272739      -4.88621401  T        1        2
H       -0.49786793       2.38633136      -5.28611639  T        1        2
41
Properties=species:S:1:pos:R:3:is_solvent:L:1:group_label:I:1:tags:I:1 Coordinates=T from=T ORCA-job=T Li1EC4_r09_charge_1_spin_1_liquid_t_traj_4_frame_0000=T E=T -1378.044619737038=T solvent_indices_0based="_JSON [31, 32, 33, 34, 35, 36, 37, 38, 39, 40]" complex_indices_0based="_JSON [0, 1, 2, 3, 4, 5, 6, 7, 8, 9, 10, 11, 12, 13, 14, 15, 16, 17, 18, 19, 20, 21, 22, 23, 24, 25, 26, 27, 28, 29, 30]" complex_indices_1based="_JSON [1, 2, 3, 4, 5, 6, 7, 8, 9, 10, 11, 12, 13, 14, 15, 16, 17, 18, 19, 20, 21, 22, 23, 24, 25, 26, 27, 28, 29, 30, 31]" pbc="F F F"
Li       0.02990000       0.16857200       0.06310700  F        0        1
C        4.31227500      -0.82779900       2.61181300  F        0        1
C        4.16942100       0.63899100       2.20061300  F        0        1
O        2.90853600       0.65623200       1.50711900  F        0        1
C        2.53933200      -0.59403300       1.22398200  F        0        1
O        3.36342900      -1.49450000       1.75954900  F        0        1
O        1.57867700      -0.88032300       0.55871600  F        0        1
H        5.29970100      -1.24126800       2.41708000  F        0        1
H        4.02727300      -1.01020900       3.64880400  F        0        1
H        4.10789300       1.32557200       3.04244100  F        0        1
H        4.94569800       0.96515200       1.50699900  F        0        1
C       -2.47194500       3.65474700       2.75804300  F        0        1
C       -2.93314400       3.45436700       1.31429900  F        0        1
O       -2.28691700       2.22284300       0.94399600  F        0        1
C       -1.30516300       1.96349800       1.81042000  F        0        1
O       -1.30967200       2.80881400       2.84061400  F        0        1
O       -0.51125500       1.06844600       1.68231700  F        0        1
H       -2.17065300       4.67546900       2.98380300  F        0        1
H       -3.20050700       3.30726500       3.49203000  F        0        1
H       -4.00833200       3.32372600       1.21148200  F        0        1
H       -2.58293100       4.23909100       0.64213600  F        0        1
C       -1.98023200      -3.98189700       0.84353700  F        0        1
C       -2.21156900      -4.33571100      -0.62678300  F        0        1
O       -2.09302100      -3.06170000      -1.28619300  F        0        1
C       -1.52056200      -2.18681400      -0.45923200  F        0        1
O       -1.35877400      -2.68599400       0.76709200  F        0        1
O       -1.19492800      -1.07503100      -0.78430500  F        0        1
H       -2.90713000      -3.88395900       1.41037500  F        0        1
H       -1.29957300      -4.66003800       1.35409800  F        0        1
H       -1.44755900      -5.00161600      -1.03021300  F        0        1
H       -3.20236000      -4.73729200      -0.82898100  F        0        1
C        0.53982700       0.61104000      -4.49136100  T        1        2
C        0.31580500       2.11739000      -4.61597900  T        1        2
O       -0.05409700       2.49325300      -3.27579400  T        1        2
C        0.29397800       1.51893200      -2.43484900  T        1        2
O        0.74746400       0.44044800      -3.07729700  T        1        2
O        0.21294200       1.60716000      -1.23760800  T        1        2
H       -0.33398500       0.02533200      -4.78107400  T        1        2
H        1.42329400       0.25346900      -5.01588200  T        1        2
H        1.22141100       2.66272700      -4.88621400  T        1        2
H       -0.49786800       2.38633100      -5.28611600  T        1        2
41
Properties=species:S:1:pos:R:3:is_solvent:L:1:group_label:I:1:tags:I:1 Coordinates=T from=T ORCA-job=T Li1EC4_r09_charge_1_spin_1_liquid_t_traj_4_frame_0001=T E=T -1378.038596637812=T solvent_indices_0based="_JSON [31, 32, 33, 34, 35, 36, 37, 38, 39, 40]" complex_indices_0based="_JSON [0, 1, 2, 3, 4, 5, 6, 7, 8, 9, 10, 11, 12, 13, 14, 15, 16, 17, 18, 19, 20, 21, 22, 23, 24, 25, 26, 27, 28, 29, 30]" complex_indices_1based="_JSON [1, 2, 3, 4, 5, 6, 7, 8, 9, 10, 11, 12, 13, 14, 15, 16, 17, 18, 19, 20, 21, 22, 23, 24, 25, 26, 27, 28, 29, 30, 31]" pbc="F F F"
Li      -0.31725955      -0.31397733       0.62095909  F        0        1
C        4.73243996      -0.16971144       0.46515867  F        0        1
C        4.03160833       1.08484416       0.98394148  F        0        1
O        2.68017338       0.63123753       1.17478438  F        0        1
C        2.49808039      -0.49670862       0.49043730  F        0        1
O        3.63462584      -0.96365867      -0.02374568  F        0        1
O        1.43096317      -1.03934765       0.35508632  F        0        1
H        5.41699041       0.01724316      -0.35952506  F        0        1
H        5.23781123      -0.73205899       1.25171383  F        0        1
H        4.41460538       1.44047978       1.93797046  F        0        1
H        4.01684201       1.89666507       0.25503455  F        0        1
C       -2.39907565       3.78856709       2.45235144  F        0        1
C       -2.98825779       3.21646584       1.16388503  F        0        1
O       -2.50005544       1.86258065       1.17445132  F        0        1
C       -1.45931693       1.78377394       2.00445338  F        0        1
O       -1.30185088       2.89417062       2.72046638  F        0        1
O       -0.74695482       0.81641833       2.09842641  F        0        1
H       -2.00262839       4.79590917       2.34512262  F        0        1
H       -3.09029427       3.74366536       3.29534352  F        0        1
H       -4.07570118       3.19158268       1.15069286  F        0        1
H       -2.60829529       3.70605521       0.26587875  F        0        1
C       -3.03361717      -4.28547832       1.01306528  F        0        1
C       -3.34385060      -4.35991476      -0.48283719  F        0        1
O       -2.93543513      -3.06301589      -0.95928129  F        0        1
C       -2.17254087      -2.47632662      -0.04072872  F        0        1
O       -2.11802168      -3.17585816       1.09291907  F        0        1
O       -1.59989301      -1.43209242      -0.21538531  F        0        1
H       -3.90871112      -4.04926806       1.61986884  F        0        1
H       -2.53552015      -5.17086712       1.40224294  F        0        1
H       -2.75457080      -5.11512573      -1.00451956  F        0        1
H       -4.40090453      -4.49006207      -0.70473173  F        0        1
C        2.27099178       1.18267272      -3.31227086  T        1        2
C        1.25959975       2.13754232      -3.94285750  T        1        2
O        0.19355172       2.14893521      -2.97825241  T        1        2
C        0.63703611       1.66817652      -1.81274219  T        1        2
O        1.89745956       1.20374408      -1.92256185  T        1        2
O        0.00210264       1.65519883      -0.79794959  T        1        2
H        2.17498430       0.15918998      -3.67861692  T        1        2
H        3.30259902       1.51752419      -3.40085893  T        1        2
H        1.64127439       3.15469022      -4.04678179  T        1        2
H        0.86213721       1.78811457      -4.89342288  T        1        2
41
Properties=species:S:1:pos:R:3:is_solvent:L:1:group_label:I:1:tags:I:1 Coordinates=T from=T ORCA-job=T Li1EC4_r09_charge_1_spin_1_liquid_t_traj_4_frame_0001=T E=T -1378.038596637812=T solvent_indices_0based="_JSON [31, 32, 33, 34, 35, 36, 37, 38, 39, 40]" complex_indices_0based="_JSON [0, 1, 2, 3, 4, 5, 6, 7, 8, 9, 10, 11, 12, 13, 14, 15, 16, 17, 18, 19, 20, 21, 22, 23, 24, 25, 26, 27, 28, 29, 30]" complex_indices_1based="_JSON [1, 2, 3, 4, 5, 6, 7, 8, 9, 10, 11, 12, 13, 14, 15, 16, 17, 18, 19, 20, 21, 22, 23, 24, 25, 26, 27, 28, 29, 30, 31]" pbc="F F F"
Li      -0.31726000      -0.31397700       0.62095900  F        0        1
C        4.73244000      -0.16971100       0.46515900  F        0        1
C        4.03160800       1.08484400       0.98394100  F        0        1
O        2.68017300       0.63123800       1.17478400  F        0        1
C        2.49808000      -0.49670900       0.49043700  F        0        1
O        3.63462600      -0.96365900      -0.02374600  F        0        1
O        1.43096300      -1.03934800       0.35508600  F        0        1
H        5.41699000       0.01724300      -0.35952500  F        0        1
H        5.23781100      -0.73205900       1.25171400  F        0        1
H        4.41460500       1.44048000       1.93797000  F        0        1
H        4.01684200       1.89666500       0.25503500  F        0        1
C       -2.39907600       3.78856700       2.45235100  F        0        1
C       -2.98825800       3.21646600       1.16388500  F        0        1
O       -2.50005500       1.86258100       1.17445100  F        0        1
C       -1.45931700       1.78377400       2.00445300  F        0        1
O       -1.30185100       2.89417100       2.72046600  F        0        1
O       -0.74695500       0.81641800       2.09842600  F        0        1
H       -2.00262800       4.79590900       2.34512300  F        0        1
H       -3.09029400       3.74366500       3.29534400  F        0        1
H       -4.07570100       3.19158300       1.15069300  F        0        1
H       -2.60829500       3.70605500       0.26587900  F        0        1
C       -3.03361700      -4.28547800       1.01306500  F        0        1
C       -3.34385100      -4.35991500      -0.48283700  F        0        1
O       -2.93543500      -3.06301600      -0.95928100  F        0        1
C       -2.17254100      -2.47632700      -0.04072900  F        0        1
O       -2.11802200      -3.17585800       1.09291900  F        0        1
O       -1.59989300      -1.43209200      -0.21538500  F        0        1
H       -3.90871100      -4.04926800       1.61986900  F        0        1
H       -2.53552000      -5.17086700       1.40224300  F        0        1
H       -2.75457100      -5.11512600      -1.00452000  F        0        1
H       -4.40090500      -4.49006200      -0.70473200  F        0        1
C        2.27099200       1.18267300      -3.31227100  T        1        2
C        1.25960000       2.13754200      -3.94285700  T        1        2
O        0.19355200       2.14893500      -2.97825200  T        1        2
C        0.63703600       1.66817700      -1.81274200  T        1        2
O        1.89746000       1.20374400      -1.92256200  T        1        2
O        0.00210300       1.65519900      -0.79795000  T        1        2
H        2.17498400       0.15919000      -3.67861700  T        1        2
H        3.30259900       1.51752400      -3.40085900  T        1        2
H        1.64127400       3.15469000      -4.04678200  T        1        2
H        0.86213700       1.78811500      -4.89342300  T        1        2
41
Properties=species:S:1:pos:R:3:is_solvent:L:1:group_label:I:1:tags:I:1 Coordinates=T from=T ORCA-job=T Li1EC4_r09_charge_1_spin_1_liquid_t_traj_4_frame_0002=T E=T -1378.035956791595=T solvent_indices_0based="_JSON [31, 32, 33, 34, 35, 36, 37, 38, 39, 40]" complex_indices_0based="_JSON [0, 1, 2, 3, 4, 5, 6, 7, 8, 9, 10, 11, 12, 13, 14, 15, 16, 17, 18, 19, 20, 21, 22, 23, 24, 25, 26, 27, 28, 29, 30]" complex_indices_1based="_JSON [1, 2, 3, 4, 5, 6, 7, 8, 9, 10, 11, 12, 13, 14, 15, 16, 17, 18, 19, 20, 21, 22, 23, 24, 25, 26, 27, 28, 29, 30, 31]" pbc="F F F"
Li      -0.38373256      -0.66102834       0.64879083  F        0        1
C        4.62808384       0.01343589       0.17393244  F        0        1
C        3.89431749       1.11365615       0.93980232  F        0        1
O        2.59539489       0.53400815       1.15337173  F        0        1
C        2.43041862      -0.48662070       0.31502171  F        0        1
O        3.54818545      -0.78889077      -0.34083196  F        0        1
O        1.39186625      -1.08231636       0.16943141  F        0        1
H        5.21470404       0.37941833      -0.66621092  F        0        1
H        5.24497078      -0.61665563       0.81618053  F        0        1
H        4.33279889       1.34331684       1.90845331  F        0        1
H        3.76498869       2.02561013       0.35519826  F        0        1
C       -1.85358636       3.86281112       1.90606365  F        0        1
C       -2.58168041       3.23358736       0.71984893  F        0        1
O       -2.36986911       1.82682377       0.94026728  F        0        1
C       -1.32729311       1.67355146       1.75473134  F        0        1
O       -0.94355000       2.81976010       2.30592253  F        0        1
O       -0.79969817       0.61127031       1.97624815  F        0        1
H       -1.27154735       4.74431589       1.64618722  F        0        1
H       -2.51370608       4.08071366       2.74710503  F        0        1
H       -3.65261872       3.42373988       0.70967075  F        0        1
H       -2.13227160       3.49264714      -0.23933061  F        0        1
C       -3.18860164      -4.59004704       1.15360710  F        0        1
C       -3.67066970      -4.56278917      -0.29780146  F        0        1
O       -3.22737346      -3.27075778      -0.75787081  F        0        1
C       -2.32911243      -2.78494626       0.09283001  F        0        1
O       -2.19417469      -3.54668388       1.17761766  F        0        1
O       -1.70880318      -1.77030265      -0.09805735  F        0        1
H       -3.97002689      -4.33096403       1.86901965  F        0        1
H       -2.71204708      -5.52499686       1.44015634  F        0        1
H       -3.19927677      -5.32458609      -0.91991511  F        0        1
H       -4.75257246      -4.61061834      -0.40085221  F        0        1
C        2.25906991       1.72212600      -3.37777924  T        1        2
C        1.30432744       2.84955742      -3.77210352  T        1        2
O        0.29595536       2.79003147      -2.74925373  T        1        2
C        0.73617995       2.05208473      -1.72274747  T        1        2
O        1.93045396       1.49061207      -1.99719250  T        1        2
O        0.15355053       1.91075069      -0.68847449  T        1        2
H        2.08147341       0.80025505      -3.93363383  T        1        2
H        3.30947466       1.99969447      -3.44447678  T        1        2
H        1.77129213       3.83509009      -3.73762510  T        1        2
H        0.82626839       2.69660467      -4.73751701  T        1        2
41
Properties=species:S:1:pos:R:3:is_solvent:L:1:group_label:I:1:tags:I:1 Coordinates=T from=T ORCA-job=T Li1EC4_r09_charge_1_spin_1_liquid_t_traj_4_frame_0002=T E=T -1378.035956791595=T solvent_indices_0based="_JSON [31, 32, 33, 34, 35, 36, 37, 38, 39, 40]" complex_indices_0based="_JSON [0, 1, 2, 3, 4, 5, 6, 7, 8, 9, 10, 11, 12, 13, 14, 15, 16, 17, 18, 19, 20, 21, 22, 23, 24, 25, 26, 27, 28, 29, 30]" complex_indices_1based="_JSON [1, 2, 3, 4, 5, 6, 7, 8, 9, 10, 11, 12, 13, 14, 15, 16, 17, 18, 19, 20, 21, 22, 23, 24, 25, 26, 27, 28, 29, 30, 31]" pbc="F F F"
Li      -0.38373300      -0.66102800       0.64879100  F        0        1
C        4.62808400       0.01343600       0.17393200  F        0        1
C        3.89431700       1.11365600       0.93980200  F        0        1
O        2.59539500       0.53400800       1.15337200  F        0        1
C        2.43041900      -0.48662100       0.31502200  F        0        1
O        3.54818500      -0.78889100      -0.34083200  F        0        1
O        1.39186600      -1.08231600       0.16943100  F        0        1
H        5.21470400       0.37941800      -0.66621100  F        0        1
H        5.24497100      -0.61665600       0.81618100  F        0        1
H        4.33279900       1.34331700       1.90845300  F        0        1
H        3.76498900       2.02561000       0.35519800  F        0        1
C       -1.85358600       3.86281100       1.90606400  F        0        1
C       -2.58168000       3.23358700       0.71984900  F        0        1
O       -2.36986900       1.82682400       0.94026700  F        0        1
C       -1.32729300       1.67355100       1.75473100  F        0        1
O       -0.94355000       2.81976000       2.30592300  F        0        1
O       -0.79969800       0.61127000       1.97624800  F        0        1
H       -1.27154700       4.74431600       1.64618700  F        0        1
H       -2.51370600       4.08071400       2.74710500  F        0        1
H       -3.65261900       3.42374000       0.70967100  F        0        1
H       -2.13227200       3.49264700      -0.23933100  F        0        1
C       -3.18860200      -4.59004700       1.15360700  F        0        1
C       -3.67067000      -4.56278900      -0.29780100  F        0        1
O       -3.22737300      -3.27075800      -0.75787100  F        0        1
C       -2.32911200      -2.78494600       0.09283000  F        0        1
O       -2.19417500      -3.54668400       1.17761800  F        0        1
O       -1.70880300      -1.77030300      -0.09805700  F        0        1
H       -3.97002700      -4.33096400       1.86902000  F        0        1
H       -2.71204700      -5.52499700       1.44015600  F        0        1
H       -3.19927700      -5.32458600      -0.91991500  F        0        1
H       -4.75257200      -4.61061800      -0.40085200  F        0        1
C        2.25907000       1.72212600      -3.37777900  T        1        2
C        1.30432700       2.84955700      -3.77210400  T        1        2
O        0.29595500       2.79003100      -2.74925400  T        1        2
C        0.73618000       2.05208500      -1.72274700  T        1        2
O        1.93045400       1.49061200      -1.99719200  T        1        2
O        0.15355100       1.91075100      -0.68847400  T        1        2
H        2.08147300       0.80025500      -3.93363400  T        1        2
H        3.30947500       1.99969400      -3.44447700  T        1        2
H        1.77129200       3.83509000      -3.73762500  T        1        2
H        0.82626800       2.69660500      -4.73751700  T        1        2
41
Properties=species:S:1:pos:R:3:is_solvent:L:1:group_label:I:1:tags:I:1 Coordinates=T from=T ORCA-job=T Li1EC4_r09_charge_1_spin_1_liquid_t_traj_4_frame_0003=T E=T -1378.037279606905=T solvent_indices_0based="_JSON [31, 32, 33, 34, 35, 36, 37, 38, 39, 40]" complex_indices_0based="_JSON [0, 1, 2, 3, 4, 5, 6, 7, 8, 9, 10, 11, 12, 13, 14, 15, 16, 17, 18, 19, 20, 21, 22, 23, 24, 25, 26, 27, 28, 29, 30]" complex_indices_1based="_JSON [1, 2, 3, 4, 5, 6, 7, 8, 9, 10, 11, 12, 13, 14, 15, 16, 17, 18, 19, 20, 21, 22, 23, 24, 25, 26, 27, 28, 29, 30, 31]" pbc="F F F"
Li      -0.93617339      -0.87929054       0.27445327  F        0        1
C        3.80988221      -0.59632736      -1.32092219  F        0        1
C        3.57131871      -0.21993576       0.14342245  F        0        1
O        2.24299075      -0.71701990       0.38666718  F        0        1
C        1.64799763      -0.96867629      -0.77659593  F        0        1
O        2.48122023      -0.86564635      -1.80608613  F        0        1
O        0.48631230      -1.28118168      -0.87744511  F        0        1
H        4.23050408       0.21434482      -1.91052011  F        0        1
H        4.40545916      -1.49981036      -1.44076021  F        0        1
H        4.25442903      -0.70705820       0.83734572  F        0        1
H        3.56532174       0.85699352       0.30573716  F        0        1
C       -2.05709403       3.88382441      -0.03070030  F        0        1
C       -2.33627473       2.96757359      -1.22331156  F        0        1
O       -2.18058163       1.65573529      -0.65259635  F        0        1
C       -1.52558248       1.75343049       0.50528368  F        0        1
O       -1.37176758       3.01428015       0.89206365  F        0        1
O       -1.13950405       0.79839666       1.13073633  F        0        1
H       -1.39784819       4.71455755      -0.27179011  F        0        1
H       -2.96298449       4.24583285       0.45594855  F        0        1
H       -3.34761046       3.05568551      -1.61498605  F        0        1
H       -1.60429825       3.07990521      -2.02378213  F        0        1
C       -2.68746398      -5.01844549       2.44151821  F        0        1
C       -3.94076533      -4.97913352       1.56549230  F        0        1
O       -3.85721121      -3.67917691       0.94769756  F        0        1
C       -2.63025105      -3.19527515       1.10398429  F        0        1
O       -1.87661485      -3.96374463       1.88675068  F        0        1
O       -2.24786469      -2.17286805       0.59524491  F        0        1
H       -2.88665048      -4.77846197       3.48609054  F        0        1
H       -2.13297271      -5.95198012       2.36899286  F        0        1
H       -3.93507089      -5.73170576       0.77569444  F        0        1
H       -4.87080336      -5.03255071       2.12798020  F        0        1
C        3.23582457       3.90094044      -2.25925584  T        1        2
C        2.04809299       4.82135449      -1.99227015  T        1        2
O        0.99345692       3.89455046      -1.67602142  T        1        2
C        1.52576738       2.69914169      -1.36460305  T        1        2
O        2.85298417       2.68736099      -1.58957231  T        1        2
O        0.90245187       1.77095520      -0.94403075  T        1        2
H        3.37178693       3.68038220      -3.31884711  T        1        2
H        4.16830584       4.25739296      -1.82707441  T        1        2
H        2.20487049       5.47408055      -1.13308652  T        1        2
H        1.74641547       5.40613216      -2.85846254  T        1        2
41
Properties=species:S:1:pos:R:3:is_solvent:L:1:group_label:I:1:tags:I:1 Coordinates=T from=T ORCA-job=T Li1EC4_r09_charge_1_spin_1_liquid_t_traj_4_frame_0003=T E=T -1378.037279606905=T solvent_indices_0based="_JSON [31, 32, 33, 34, 35, 36, 37, 38, 39, 40]" complex_indices_0based="_JSON [0, 1, 2, 3, 4, 5, 6, 7, 8, 9, 10, 11, 12, 13, 14, 15, 16, 17, 18, 19, 20, 21, 22, 23, 24, 25, 26, 27, 28, 29, 30]" complex_indices_1based="_JSON [1, 2, 3, 4, 5, 6, 7, 8, 9, 10, 11, 12, 13, 14, 15, 16, 17, 18, 19, 20, 21, 22, 23, 24, 25, 26, 27, 28, 29, 30, 31]" pbc="F F F"
Li      -0.93617300      -0.87929100       0.27445300  F        0        1
C        3.80988200      -0.59632700      -1.32092200  F        0        1
C        3.57131900      -0.21993600       0.14342200  F        0        1
O        2.24299100      -0.71702000       0.38666700  F        0        1
C        1.64799800      -0.96867600      -0.77659600  F        0        1
O        2.48122000      -0.86564600      -1.80608600  F        0        1
O        0.48631200      -1.28118200      -0.87744500  F        0        1
H        4.23050400       0.21434500      -1.91052000  F        0        1
H        4.40545900      -1.49981000      -1.44076000  F        0        1
H        4.25442900      -0.70705800       0.83734600  F        0        1
H        3.56532200       0.85699400       0.30573700  F        0        1
C       -2.05709400       3.88382400      -0.03070000  F        0        1
C       -2.33627500       2.96757400      -1.22331200  F        0        1
O       -2.18058200       1.65573500      -0.65259600  F        0        1
C       -1.52558200       1.75343000       0.50528400  F        0        1
O       -1.37176800       3.01428000       0.89206400  F        0        1
O       -1.13950400       0.79839700       1.13073600  F        0        1
H       -1.39784800       4.71455800      -0.27179000  F        0        1
H       -2.96298400       4.24583300       0.45594900  F        0        1
H       -3.34761000       3.05568600      -1.61498600  F        0        1
H       -1.60429800       3.07990500      -2.02378200  F        0        1
C       -2.68746400      -5.01844500       2.44151800  F        0        1
C       -3.94076500      -4.97913400       1.56549200  F        0        1
O       -3.85721100      -3.67917700       0.94769800  F        0        1
C       -2.63025100      -3.19527500       1.10398400  F        0        1
O       -1.87661500      -3.96374500       1.88675100  F        0        1
O       -2.24786500      -2.17286800       0.59524500  F        0        1
H       -2.88665000      -4.77846200       3.48609100  F        0        1
H       -2.13297300      -5.95198000       2.36899300  F        0        1
H       -3.93507100      -5.73170600       0.77569400  F        0        1
H       -4.87080300      -5.03255100       2.12798000  F        0        1
C        3.23582500       3.90094000      -2.25925600  T        1        2
C        2.04809300       4.82135400      -1.99227000  T        1        2
O        0.99345700       3.89455000      -1.67602100  T        1        2
C        1.52576700       2.69914200      -1.36460300  T        1        2
O        2.85298400       2.68736100      -1.58957200  T        1        2
O        0.90245200       1.77095500      -0.94403100  T        1        2
H        3.37178700       3.68038200      -3.31884700  T        1        2
H        4.16830600       4.25739300      -1.82707400  T        1        2
H        2.20487000       5.47408100      -1.13308700  T        1        2
H        1.74641500       5.40613200      -2.85846300  T        1        2
41
Properties=species:S:1:pos:R:3:is_solvent:L:1:group_label:I:1:tags:I:1 Coordinates=T from=T ORCA-job=T Li1EC4_r09_charge_1_spin_1_liquid_t_traj_4_frame_0004=T E=T -1378.038778630672=T solvent_indices_0based="_JSON [31, 32, 33, 34, 35, 36, 37, 38, 39, 40]" complex_indices_0based="_JSON [0, 1, 2, 3, 4, 5, 6, 7, 8, 9, 10, 11, 12, 13, 14, 15, 16, 17, 18, 19, 20, 21, 22, 23, 24, 25, 26, 27, 28, 29, 30]" complex_indices_1based="_JSON [1, 2, 3, 4, 5, 6, 7, 8, 9, 10, 11, 12, 13, 14, 15, 16, 17, 18, 19, 20, 21, 22, 23, 24, 25, 26, 27, 28, 29, 30, 31]" pbc="F F F"
Li      -1.11037537      -0.90610282       0.37706669  F        0        1
C        3.64185433      -0.40940161      -1.16836977  F        0        1
C        3.35133832       0.03877551       0.26744279  F        0        1
O        2.03534242      -0.48869534       0.50965127  F        0        1