41
Properties=species:S:1:pos:R:3:is_solvent:L:1:group_label:I:1:tags:I:1 Coordinates=T from=T ORCA-job=T Li1EC4_r06_charge_1_spin_1_liquid_t_traj_2_frame_0000=T E=T -1378.044775321734=T solvent_indices_0based="_JSON [11, 12, 13, 14, 15, 16, 17, 18, 19, 20]" complex_indices_0based="_JSON [0, 1, 2, 3, 4, 5, 6, 7, 8, 9, 10, 21, 22, 23, 24, 25, 26, 27, 28, 29, 30, 31, 32, 33, 34, 35, 36, 37, 38, 39, 40]" complex_indices_1based="_JSON [1, 2, 3, 4, 5, 6, 7, 8, 9, 10, 11, 22, 23, 24, 25, 26, 27, 28, 29, 30, 31, 32, 33, 34, 35, 36, 37, 38, 39, 40, 41]" pbc="F F F"
Li       1.34007009       0.20012474      -0.93619327  F        0        1
C        4.74375332       1.52717255       1.85897404  F        0        1
C        5.25163206       2.73153923       1.06757494  F        0        1
O        4.46835666       2.67073390      -0.13869242  F        0        1
C        3.41883889       1.87178432       0.05833803  F        0        1
O        3.46753524       1.26464286       1.24564663  F        0        1
O        2.53214145       1.72331115      -0.74130486  F        0        1
H        5.36810648       0.64078640       1.73743716  F        0        1
H        4.58216373       1.73170437       2.91518553  F        0        1
H        5.04723416       3.68266910       1.56163963  F        0        1
H        6.30381406       2.66753018       0.79848090  F        0        1
C        1.41415684       1.27628915      -5.91343335  T        1        2
C        2.76571166       1.21767812      -5.20242565  T        1        2
O        2.43410545       0.60021296      -3.94535949  T        1        2
C        1.11527433       0.68177928      -3.75075680  T        1        2
O        0.47855617       1.14497720      -4.82665294  T        1        2
O        0.56353677       0.37058449      -2.72824482  T        1        2
H        1.22504813       2.22196007      -6.41698588  T        1        2
H        1.25645536       0.44508902      -6.60228792  T        1        2
H        3.50141241       0.59610283      -5.70839688  T        1        2
H        3.18267731       2.20507426      -4.99846463  T        1        2
C       -2.63131291       2.41963453       0.10044541  F        0        1
C       -3.32929326       1.23290953       0.76696119  F        0        1
O       -2.23866806       0.33544771       1.04642087  F        0        1
C       -1.17089367       0.70515395       0.34062694  F        0        1
O       -1.36264847       1.86502774      -0.29117537  F        0        1
O       -0.15162143       0.06816496       0.28470559  F        0        1
H       -3.14019317       2.77971047      -0.79131981  F        0        1
H       -2.44619442       3.24722876       0.78670526  F        0        1
H       -3.81870945       1.48251826       1.70600495  F        0        1
H       -4.02881150       0.72302521       0.10310729  F        0        1
C        0.86613804      -4.33715322      -0.21130807  F        0        1
C        2.32099309      -4.68166461       0.10564698  F        0        1
O        2.94904536      -3.38644540       0.15892757  F        0        1
C        2.15142261      -2.48686091      -0.41712017  F        0        1
O        0.96759497      -3.00545070      -0.74909034  F        0        1
O        2.46717875      -1.34298740      -0.61688959  F        0        1
H        0.41652806      -4.97921835      -0.96569375  F        0        1
H        0.23366837      -4.29871067       0.67681836  F        0        1
H        2.45583232      -5.16856032       1.06915588  F        0        1
H        2.80411231      -5.26339160      -0.68073700  F        0        1
41
Properties=species:S:1:pos:R:3:is_solvent:L:1:group_label:I:1:tags:I:1 Coordinates=T from=T ORCA-job=T Li1EC4_r06_charge_1_spin_1_liquid_t_traj_2_frame_0000=T E=T -1378.044775321734=T solvent_indices_0based="_JSON [11, 12, 13, 14, 15, 16, 17, 18, 19, 20]" complex_indices_0based="_JSON [0, 1, 2, 3, 4, 5, 6, 7, 8, 9, 10, 21, 22, 23, 24, 25, 26, 27, 28, 29, 30, 31, 32, 33, 34, 35, 36, 37, 38, 39, 40]" complex_indices_1based="_JSON [1, 2, 3, 4, 5, 6, 7, 8, 9, 10, 11, 22, 23, 24, 25, 26, 27, 28, 29, 30, 31, 32, 33, 34, 35, 36, 37, 38, 39, 40, 41]" pbc="F F F"
Li       1.34007000       0.20012500      -0.93619300  F        0        1
C        4.74375300       1.52717300       1.85897400  F        0        1
C        5.25163200       2.73153900       1.06757500  F        0        1
O        4.46835700       2.67073400      -0.13869200  F        0        1
C        3.41883900       1.87178400       0.05833800  F        0        1
O        3.46753500       1.26464300       1.24564700  F        0        1
O        2.53214100       1.72331100      -0.74130500  F        0        1
H        5.36810600       0.64078600       1.73743700  F        0        1
H        4.58216400       1.73170400       2.91518600  F        0        1
H        5.04723400       3.68266900       1.56164000  F        0        1
H        6.30381400       2.66753000       0.79848100  F        0        1
C        1.41415700       1.27628900      -5.91343300  T        1        2
C        2.76571200       1.21767800      -5.20242600  T        1        2
O        2.43410500       0.60021300      -3.94535900  T        1        2
C        1.11527400       0.68177900      -3.75075700  T        1        2
O        0.47855600       1.14497700      -4.82665300  T        1        2
O        0.56353700       0.37058400      -2.72824500  T        1        2
H        1.22504800       2.22196000      -6.41698600  T        1        2
H        1.25645500       0.44508900      -6.60228800  T        1        2
H        3.50141200       0.59610300      -5.70839700  T        1        2
H        3.18267700       2.20507400      -4.99846500  T        1        2
C       -2.63131300       2.41963500       0.10044500  F        0        1
C       -3.32929300       1.23291000       0.76696100  F        0        1
O       -2.23866800       0.33544800       1.04642100  F        0        1
C       -1.17089400       0.70515400       0.34062700  F        0        1
O       -1.36264800       1.86502800      -0.29117500  F        0        1
O       -0.15162100       0.06816500       0.28470600  F        0        1
H       -3.14019300       2.77971000      -0.79132000  F        0        1
H       -2.44619400       3.24722900       0.78670500  F        0        1
H       -3.81870900       1.48251800       1.70600500  F        0        1
H       -4.02881100       0.72302500       0.10310700  F        0        1
C        0.86613800      -4.33715300      -0.21130800  F        0        1
C        2.32099300      -4.68166500       0.10564700  F        0        1
O        2.94904500      -3.38644500       0.15892800  F        0        1
C        2.15142300      -2.48686100      -0.41712000  F        0        1
O        0.96759500      -3.00545100      -0.74909000  F        0        1
O        2.46717900      -1.34298700      -0.61689000  F        0        1
H        0.41652800      -4.97921800      -0.96569400  F        0        1
H        0.23366800      -4.29871100       0.67681800  F        0        1
H        2.45583200      -5.16856000       1.06915600  F        0        1
H        2.80411200      -5.26339200      -0.68073700  F        0        1
41
Properties=species:S:1:pos:R:3:is_solvent:L:1:group_label:I:1:tags:I:1 Coordinates=T from=T ORCA-job=T Li1EC4_r06_charge_1_spin_1_liquid_t_traj_2_frame_0001=T E=T -1378.039155560408=T solvent_indices_0based="_JSON [11, 12, 13, 14, 15, 16, 17, 18, 19, 20]" complex_indices_0based="_JSON [0, 1, 2, 3, 4, 5, 6, 7, 8, 9, 10, 21, 22, 23, 24, 25, 26, 27, 28, 29, 30, 31, 32, 33, 34, 35, 36, 37, 38, 39, 40]" complex_indices_1based="_JSON [1, 2, 3, 4, 5, 6, 7, 8, 9, 10, 11, 22, 23, 24, 25, 26, 27, 28, 29, 30, 31, 32, 33, 34, 35, 36, 37, 38, 39, 40, 41]" pbc="F F F"
Li       1.45204893      -0.29070709      -0.05214205  F        0        1
C        5.67250898       0.72835423      -1.40321181  F        0        1
C        5.74875023       2.18269552      -0.94113074  F        0        1
O        4.38340128       2.46940178      -0.57598434  F        0        1
C        3.72740000       1.31897227      -0.41673984  F        0        1
O        4.45589162       0.26874220      -0.78721843  F        0        1
O        2.60412538       1.24454862       0.01225876  F        0        1
H        5.56434328       0.62943833      -2.48430653  F        0        1
H        6.49445535       0.11071356      -1.04684113  F        0        1
H        6.37354622       2.31896157      -0.05749352  F        0        1
H        6.04960262       2.87638944      -1.72348977  F        0        1
C        1.03715199       3.28132007      -3.98015340  T        1        2
C        2.45927083       3.11300792      -3.45219733  T        1        2
O        2.47654595       1.73815484      -3.02893405  T        1        2
C        1.21146879       1.30667479      -2.87214126  T        1        2
O        0.33157943       2.20895623      -3.33171229  T        1        2
O        0.91193045       0.25421260      -2.38994676  T        1        2
H        0.57548978       4.22400589      -3.69252231  T        1        2
H        0.96295825       3.14228846      -5.05999386  T        1        2
H        3.22596527       3.25118080      -4.21256190  T        1        2
H        2.66646060       3.73926165      -2.58288111  T        1        2
C       -2.38556099       2.20356551      -0.98296314  F        0        1
C       -3.23396690       0.93678784      -1.12619281  F        0        1
O       -2.49231227      -0.03717724      -0.36936635  F        0        1
C       -1.26994232       0.42673217      -0.12838164  F        0        1
O       -1.12753335       1.69778524      -0.50237083  F        0        1
O       -0.39440947      -0.22778957       0.37837254  F        0        1
H       -2.20858485       2.71360371      -1.92799029  F        0        1
H       -2.77777395       2.90122559      -0.24193765  F        0        1
H       -4.22786094       1.02364560      -0.69208729  F        0        1
H       -3.30114028       0.58482867      -2.15604673  F        0        1
C        0.39538718      -4.83726770       0.59141820  F        0        1
C        1.68893039      -5.21811998       1.31613013  F        0        1
O        2.37277708      -3.95702122       1.43827962  F        0        1
C        1.79017713      -3.05690231       0.65197852  F        0        1
O        0.69943854      -3.53543955       0.05587457  F        0        1
O        2.21082587      -1.93845916       0.49484585  F        0        1
H        0.14614598      -5.50093782      -0.23370457  F        0        1
H       -0.45905980      -4.73712562       1.26232968  F        0        1
H        1.52780708      -5.61842973       2.31491222  F        0        1
H        2.32042583      -5.89390680       0.73843404  F        0        1
41
Properties=species:S:1:pos:R:3:is_solvent:L:1:group_label:I:1:tags:I:1 Coordinates=T from=T ORCA-job=T Li1EC4_r06_charge_1_spin_1_liquid_t_traj_2_frame_0001=T E=T -1378.039155560408=T solvent_indices_0based="_JSON [11, 12, 13, 14, 15, 16, 17, 18, 19, 20]" complex_indices_0based="_JSON [0, 1, 2, 3, 4, 5, 6, 7, 8, 9, 10, 21, 22, 23, 24, 25, 26, 27, 28, 29, 30, 31, 32, 33, 34, 35, 36, 37, 38, 39, 40]" complex_indices_1based="_JSON [1, 2, 3, 4, 5, 6, 7, 8, 9, 10, 11, 22, 23, 24, 25, 26, 27, 28, 29, 30, 31, 32, 33, 34, 35, 36, 37, 38, 39, 40, 41]" pbc="F F F"
Li       1.45204900      -0.29070700      -0.05214200  F        0        1
C        5.67250900       0.72835400      -1.40321200  F        0        1
C        5.74875000       2.18269600      -0.94113100  F        0        1
O        4.38340100       2.46940200      -0.57598400  F        0        1
C        3.72740000       1.31897200      -0.41674000  F        0        1
O        4.45589200       0.26874200      -0.78721800  F        0        1
O        2.60412500       1.24454900       0.01225900  F        0        1
H        5.56434300       0.62943800      -2.48430700  F        0        1
H        6.49445500       0.11071400      -1.04684100  F        0        1
H        6.37354600       2.31896200      -0.05749400  F        0        1
H        6.04960300       2.87638900      -1.72349000  F        0        1
C        1.03715200       3.28132000      -3.98015300  T        1        2
C        2.45927100       3.11300800      -3.45219700  T        1        2
O        2.47654600       1.73815500      -3.02893400  T        1        2
C        1.21146900       1.30667500      -2.87214100  T        1        2
O        0.33157900       2.20895600      -3.33171200  T        1        2
O        0.91193000       0.25421300      -2.38994700  T        1        2
H        0.57549000       4.22400600      -3.69252200  T        1        2
H        0.96295800       3.14228800      -5.05999400  T        1        2
H        3.22596500       3.25118100      -4.21256200  T        1        2
H        2.66646100       3.73926200      -2.58288100  T        1        2
C       -2.38556100       2.20356600      -0.98296300  F        0        1
C       -3.23396700       0.93678800      -1.12619300  F        0        1
O       -2.49231200      -0.03717700      -0.36936600  F        0        1
C       -1.26994200       0.42673200      -0.12838200  F        0        1
O       -1.12753300       1.69778500      -0.50237100  F        0        1
O       -0.39440900      -0.22779000       0.37837300  F        0        1
H       -2.20858500       2.71360400      -1.92799000  F        0        1
H       -2.77777400       2.90122600      -0.24193800  F        0        1
H       -4.22786100       1.02364600      -0.69208700  F        0        1
H       -3.30114000       0.58482900      -2.15604700  F        0        1
C        0.39538700      -4.83726800       0.59141800  F        0        1
C        1.68893000      -5.21812000       1.31613000  F        0        1
O        2.37277700      -3.95702100       1.43828000  F        0        1
C        1.79017700      -3.05690200       0.65197900  F        0        1
O        0.69943900      -3.53544000       0.05587500  F        0        1
O        2.21082600      -1.93845900       0.49484600  F        0        1
H        0.14614600      -5.50093800      -0.23370500  F        0        1
H       -0.45906000      -4.73712600       1.26233000  F        0        1
H        1.52780700      -5.61843000       2.31491200  F        0        1
H        2.32042600      -5.89390700       0.73843400  F        0        1
41
Properties=species:S:1:pos:R:3:is_solvent:L:1:group_label:I:1:tags:I:1 Coordinates=T from=T ORCA-job=T Li1EC4_r06_charge_1_spin_1_liquid_t_traj_2_frame_0002=T E=T -1378.035506044850=T solvent_indices_0based="_JSON [11, 12, 13, 14, 15, 16, 17, 18, 19, 20]" complex_indices_0based="_JSON [0, 1, 2, 3, 4, 5, 6, 7, 8, 9, 10, 21, 22, 23, 24, 25, 26, 27, 28, 29, 30, 31, 32, 33, 34, 35, 36, 37, 38, 39, 40]" complex_indices_1based="_JSON [1, 2, 3, 4, 5, 6, 7, 8, 9, 10, 11, 22, 23, 24, 25, 26, 27, 28, 29, 30, 31, 32, 33, 34, 35, 36, 37, 38, 39, 40, 41]" pbc="F F F"
Li       0.72453273       0.24401217      -0.33432540  F        0        1
C        5.24503078       0.51217927      -0.68274766  F        0        1
C        5.26777958       2.01373127      -0.96911418  F        0        1
O        3.89271481       2.39690212      -0.77553559  F        0        1
C        3.23931382       1.40657755      -0.17859241  F        0        1
O        4.01277300       0.34730239       0.04229460  F        0        1
O        2.07746272       1.47118281       0.14311651  F        0        1
H        5.17953035      -0.08789859      -1.59023845  F        0        1
H        6.06384747       0.17285437      -0.05168507  F        0        1
H        5.88022993       2.57801227      -0.26459314  F        0        1
H        5.54533014       2.25227752      -1.99349526  F        0        1
C        1.96417017       1.62294003      -5.65588619  T        1        2
C        3.24317979       2.33684785      -5.22151647  T        1        2
O        3.65187431       1.58055174      -4.06878419  T        1        2
C        2.61186471       0.85061584      -3.62457650  T        1        2
O        1.57425130       0.91568556      -4.46679084  T        1        2
O        2.62471847       0.22390397      -2.60442957  T        1        2
H        1.15911118       2.29886672      -5.93592554  T        1        2
H        2.13419071       0.89317850      -6.44928598  T        1        2
H        4.03759468       2.29834966      -5.96401227  T        1        2
H        3.06885049       3.36879545      -4.91198780  T        1        2
C       -3.42902461       1.89064175       1.23776952  F        0        1
C       -3.87689728       2.50126374      -0.09064937  F        0        1
O       -2.93710225       1.94445361      -1.03102508  F        0        1
C       -1.89855879       1.44379392      -0.36854300  F        0        1
O       -2.08252164       1.46416451       0.95151860  F        0        1
O       -0.90482533       1.02064704      -0.90203100  F        0        1
H       -3.39680995       2.60307998       2.05927265  F        0        1
H       -4.01029144       1.01287264       1.52302000  F        0        1
H       -4.87973078       2.20715853      -0.39246596  F        0        1
H       -3.77955738       3.58744098      -0.11516097  F        0        1
C        2.16550081      -4.59330186      -0.13973282  F        0        1
C        1.36139414      -4.75688586       1.15131635  F        0        1
O        0.57726970      -3.54981063       1.19475002  F        0        1
C        1.07504284      -2.66768111       0.33159413  F        0        1
O        2.05210019      -3.18304158      -0.41137971  F        0        1
O        0.68134671      -1.53475579       0.23804153  F        0        1
H        3.21982398      -4.83859435      -0.03169461  F        0        1
H        1.73782119      -5.13854803      -0.98233304  F        0        1
H        0.68335916      -5.60780635       1.13906639  F        0        1
H        1.98589189      -4.78974107       2.04488849  F        0        1
41
Properties=species:S:1:pos:R:3:is_solvent:L:1:group_label:I:1:tags:I:1 Coordinates=T from=T ORCA-job=T Li1EC4_r06_charge_1_spin_1_liquid_t_traj_2_frame_0002=T E=T -1378.035506044850=T solvent_indices_0based="_JSON [11, 12, 13, 14, 15, 16, 17, 18, 19, 20]" complex_indices_0based="_JSON [0, 1, 2, 3, 4, 5, 6, 7, 8, 9, 10, 21, 22, 23, 24, 25, 26, 27, 28, 29, 30, 31, 32, 33, 34, 35, 36, 37, 38, 39, 40]" complex_indices_1based="_JSON [1, 2, 3, 4, 5, 6, 7, 8, 9, 10, 11, 22, 23, 24, 25, 26, 27, 28, 29, 30, 31, 32, 33, 34, 35, 36, 37, 38, 39, 40, 41]" pbc="F F F"
Li       0.72453300       0.24401200      -0.33432500  F        0        1
C        5.24503100       0.51217900      -0.68274800  F        0        1
C        5.26778000       2.01373100      -0.96911400  F        0        1
O        3.89271500       2.39690200      -0.77553600  F        0        1
C        3.23931400       1.40657800      -0.17859200  F        0        1
O        4.01277300       0.34730200       0.04229500  F        0        1
O        2.07746300       1.47118300       0.14311700  F        0        1
H        5.17953000      -0.08789900      -1.59023800  F        0        1
H        6.06384700       0.17285400      -0.05168500  F        0        1
H        5.88023000       2.57801200      -0.26459300  F        0        1
H        5.54533000       2.25227800      -1.99349500  F        0        1
C        1.96417000       1.62294000      -5.65588600  T        1        2
C        3.24318000       2.33684800      -5.22151600  T        1        2
O        3.65187400       1.58055200      -4.06878400  T        1        2
C        2.61186500       0.85061600      -3.62457600  T        1        2
O        1.57425100       0.91568600      -4.46679100  T        1        2
O        2.62471800       0.22390400      -2.60443000  T        1        2
H        1.15911100       2.29886700      -5.93592600  T        1        2
H        2.13419100       0.89317800      -6.44928600  T        1        2
H        4.03759500       2.29835000      -5.96401200  T        1        2
H        3.06885000       3.36879500      -4.91198800  T        1        2
C       -3.42902500       1.89064200       1.23777000  F        0        1
C       -3.87689700       2.50126400      -0.09064900  F        0        1
O       -2.93710200       1.94445400      -1.03102500  F        0        1
C       -1.89855900       1.44379400      -0.36854300  F        0        1
O       -2.08252200       1.46416500       0.95151900  F        0        1
O       -0.90482500       1.02064700      -0.90203100  F        0        1
H       -3.39681000       2.60308000       2.05927300  F        0        1
H       -4.01029100       1.01287300       1.52302000  F        0        1
H       -4.87973100       2.20715900      -0.39246600  F        0        1
H       -3.77955700       3.58744100      -0.11516100  F        0        1
C        2.16550100      -4.59330200      -0.13973300  F        0        1
C        1.36139400      -4.75688600       1.15131600  F        0        1
O        0.57727000      -3.54981100       1.19475000  F        0        1
C        1.07504300      -2.66768100       0.33159400  F        0        1
O        2.05210000      -3.18304200      -0.41138000  F        0        1
O        0.68134700      -1.53475600       0.23804200  F        0        1
H        3.21982400      -4.83859400      -0.03169500  F        0        1
H        1.73782100      -5.13854800      -0.98233300  F        0        1
H        0.68335900      -5.60780600       1.13906600  F        0        1
H        1.98589200      -4.78974100       2.04488800  F        0        1
41
Properties=species:S:1:pos:R:3:is_solvent:L:1:group_label:I:1:tags:I:1 Coordinates=T from=T ORCA-job=T Li1EC4_r06_charge_1_spin_1_liquid_t_traj_2_frame_0003=T E=T -1378.033238092512=T solvent_indices_0based="_JSON [11, 12, 13, 14, 15, 16, 17, 18, 19, 20]" complex_indices_0based="_JSON [0, 1, 2, 3, 4, 5, 6, 7, 8, 9, 10, 21, 22, 23, 24, 25, 26, 27, 28, 29, 30, 31, 32, 33, 34, 35, 36, 37, 38, 39, 40]" complex_indices_1based="_JSON [1, 2, 3, 4, 5, 6, 7, 8, 9, 10, 11, 22, 23, 24, 25, 26, 27, 28, 29, 30, 31, 32, 33, 34, 35, 36, 37, 38, 39, 40, 41]" pbc="F F F"
Li       0.63543997       0.19210841      -0.22261656  F        0        1
C        4.90909500       2.19311191      -0.58824748  F        0        1
C        4.25728189       3.51433981      -1.01072880  F        0        1
O        2.91774863       3.39548538      -0.50175650  F        0        1
C        2.68911151       2.13800912      -0.15263792  F        0        1
O        3.78909838       1.39432678      -0.16744550  F        0        1
O        1.60277755       1.72417586       0.17923409  F        0        1
H        5.40394266       1.68109474      -1.41081737  F        0        1
H        5.58656911       2.29873209       0.25963464  F        0        1
H        4.71485842       4.39530794      -0.56543765  F        0        1
H        4.19691675       3.62452816      -2.09329187  F        0        1
C        3.51552082      -0.15050754      -5.66426337  T        1        2
C        4.77198528       0.59961227      -5.22368039  T        1        2
O        4.40523455       1.08891440      -3.92305104  T        1        2
C        3.06410363       1.03555581      -3.78388902  T        1        2
O        2.49585914       0.40783016      -4.82258057  T        1        2
O        2.47228505       1.49122891      -2.85192373  T        1        2
H        3.24312181       0.02701485      -6.70301197  T        1        2
H        3.57445967      -1.22365925      -5.47209171  T        1        2
H        5.64904093      -0.03672906      -5.12144480  T        1        2
H        5.00189802       1.45383011      -5.86336284  T        1        2
C       -3.01424574       2.53773956       1.83445417  F        0        1
C       -4.03827894       2.05715379       0.80255416  F        0        1
O       -3.35497460       0.96751295       0.15218620  F        0        1
C       -2.06367123       1.00666072       0.46292093  F        0        1
O       -1.78959304       1.92901908       1.38068872  F        0        1
O       -1.23769203       0.27962012      -0.03110312  F        0        1
H       -2.87638731       3.61716450       1.84259819  F        0        1
H       -3.21966940       2.17707343       2.84267319  F        0        1
H       -4.95446119       1.67155984       1.24524228  F        0        1
H       -4.27102820       2.80933602       0.04852249  F        0        1
C        1.35908775      -4.81636021      -1.34383473  F        0        1
C        0.29330222      -4.64301024      -0.26092250  F        0        1
O        0.14787211      -3.21078883      -0.18619703  F        0        1
C        1.18250169      -2.63040182      -0.78998865  F        0        1
O        1.96790557      -3.51141071      -1.40598247  F        0        1
O        1.39200532      -1.44409329      -0.77986574  F        0        1
H        2.12872608      -5.54123779      -1.08757013  F        0        1
H        0.93756193      -5.04461741      -2.32352441  F        0        1
H       -0.67102917      -5.07207959      -0.52275260  F        0        1
H        0.61221870      -5.00488528       0.71734234  F        0        1
41
Properties=species:S:1:pos:R:3:is_solvent:L:1:group_label:I:1:tags:I:1 Coordinates=T from=T ORCA-job=T Li1EC4_r06_charge_1_spin_1_liquid_t_traj_2_frame_0003=T E=T -1378.033238092512=T solvent_indices_0based="_JSON [11, 12, 13, 14, 15, 16, 17, 18, 19, 20]" complex_indices_0based="_JSON [0, 1, 2, 3, 4, 5, 6, 7, 8, 9, 10, 21, 22, 23, 24, 25, 26, 27, 28, 29, 30, 31, 32, 33, 34, 35, 36, 37, 38, 39, 40]" complex_indices_1based="_JSON [1, 2, 3, 4, 5, 6, 7, 8, 9, 10, 11, 22, 23, 24, 25, 26, 27, 28, 29, 30, 31, 32, 33, 34, 35, 36, 37, 38, 39, 40, 41]" pbc="F F F"
Li       0.63544000       0.19210800      -0.22261700  F        0        1
C        4.90909500       2.19311200      -0.58824700  F        0        1
C        4.25728200       3.51434000      -1.01072900  F        0        1
O        2.91774900       3.39548500      -0.50175700  F        0        1
C        2.68911200       2.13800900      -0.15263800  F        0        1
O        3.78909800       1.39432700      -0.16744500  F        0        1
O        1.60277800       1.72417600       0.17923400  F        0        1
H        5.40394300       1.68109500      -1.41081700  F        0        1
H        5.58656900       2.29873200       0.25963500  F        0        1
H        4.71485800       4.39530800      -0.56543800  F        0        1
H        4.19691700       3.62452800      -2.09329200  F        0        1
C        3.51552100      -0.15050800      -5.66426300  T        1        2
C        4.77198500       0.59961200      -5.22368000  T        1        2
O        4.40523500       1.08891400      -3.92305100  T        1        2
C        3.06410400       1.03555600      -3.78388900  T        1        2
O        2.49585900       0.40783000      -4.82258100  T        1        2
O        2.47228500       1.49122900      -2.85192400  T        1        2
H        3.24312200       0.02701500      -6.70301200  T        1        2
H        3.57446000      -1.22365900      -5.47209200  T        1        2
H        5.64904100      -0.03672900      -5.12144500  T        1        2
H        5.00189800       1.45383000      -5.86336300  T        1        2
C       -3.01424600       2.53774000       1.83445400  F        0        1
C       -4.03827900       2.05715400       0.80255400  F        0        1
O       -3.35497500       0.96751300       0.15218600  F        0        1
C       -2.06367100       1.00666100       0.46292100  F        0        1
O       -1.78959300       1.92901900       1.38068900  F        0        1
O       -1.23769200       0.27962000      -0.03110300  F        0        1
H       -2.87638700       3.61716500       1.84259800  F        0        1
H       -3.21966900       2.17707300       2.84267300  F        0        1
H       -4.95446100       1.67156000       1.24524200  F        0        1
H       -4.27102800       2.80933600       0.04852200  F        0        1
C        1.35908800      -4.81636000      -1.34383500  F        0        1
C        0.29330200      -4.64301000      -0.26092200  F        0        1
O        0.14787200      -3.21078900      -0.18619700  F        0        1
C        1.18250200      -2.63040200      -0.78998900  F        0        1
O        1.96790600      -3.51141100      -1.40598200  F        0        1
O        1.39200500      -1.44409300      -0.77986600  F        0        1
H        2.12872600      -5.54123800      -1.08757000  F        0        1
H        0.93756200      -5.04461700      -2.32352400  F        0        1
H       -0.67102900      -5.07208000      -0.52275300  F        0        1
H        0.61221900      -5.00488500       0.71734200  F        0        1
41
Properties=species:S:1:pos:R:3:is_solvent:L:1:group_label:I:1:tags:I:1 Coordinates=T from=T ORCA-job=T Li1EC4_r06_charge_1_spin_1_liquid_t_traj_2_frame_0004=T E=T -1378.036444122522=T solvent_indices_0based="_JSON [11, 12, 13, 14, 15, 16, 17, 18, 19, 20]" complex_indices_0based="_JSON [0, 1, 2, 3, 4, 5, 6, 7, 8, 9, 10, 21, 22, 23, 24, 25, 26, 27, 28, 29, 30, 31, 32, 33, 34, 35, 36, 37, 38, 39, 40]" complex_indices_1based="_JSON [1, 2, 3, 4, 5, 6, 7, 8, 9, 10, 11, 22, 23, 24, 25, 26, 27, 28, 29, 30, 31, 32, 33, 34, 35, 36, 37, 38, 39, 40, 41]" pbc="F F F"
Li       1.19850433      -0.91147017       0.36218709  F        0        1
C        4.98009393       1.45172390      -1.62362434  F        0        1
C        5.09412788       2.41214461      -0.44318773  F        0        1
O        3.89053778       2.13675840       0.30017484  F        0        1