41
Properties=species:S:1:pos:R:3:is_solvent:L:1:group_label:I:1:tags:I:1 Coordinates=T from=T ORCA-job=T Li1EC4_r03_charge_1_spin_1_liquid_t_traj_2_frame_0000=T E=T -1378.044320340532=T solvent_indices_0based="_JSON [11, 12, 13, 14, 15, 16, 17, 18, 19, 20]" complex_indices_0based="_JSON [0, 1, 2, 3, 4, 5, 6, 7, 8, 9, 10, 21, 22, 23, 24, 25, 26, 27, 28, 29, 30, 31, 32, 33, 34, 35, 36, 37, 38, 39, 40]" complex_indices_1based="_JSON [1, 2, 3, 4, 5, 6, 7, 8, 9, 10, 11, 22, 23, 24, 25, 26, 27, 28, 29, 30, 31, 32, 33, 34, 35, 36, 37, 38, 39, 40, 41]" pbc="F F F"
Li      -0.37213731      -1.22668200      -0.70375382  F        0        1
C        4.10470447      -0.00029384      -0.13879258  F        0        1
C        3.99776241       1.39833048      -0.74816510  F        0        1
O        2.74767820       1.34243756      -1.45967441  F        0        1
C        2.04728414       0.28813387      -1.04035413  F        0        1
O        2.75098349      -0.48269374      -0.20809060  F        0        1
O        0.91570126       0.06020605      -1.37827384  F        0        1
H        4.73786818      -0.67168129      -0.72076182  F        0        1
H        4.41810596      -0.00030477       0.90312469  F        0        1
H        3.92818156       2.18659471       0.00276008  F        0        1
H        4.78873974       1.62798318      -1.45907854  F        0        1
C       -3.95662230       1.97670904      -2.41787190  T        1        2
C       -3.08710177       2.54618767      -1.29620764  T        1        2
O       -2.15649841       1.47870461      -1.04086239  T        1        2
C       -2.60596946       0.35439226      -1.60181192  T        1        2
O       -3.70088996       0.56247428      -2.33427147  T        1        2
O       -2.09129084      -0.72381039      -1.46281735  T        1        2
H       -5.02231416       2.14274071      -2.27496648  T        1        2
H       -3.65260829       2.32050242      -3.40758639  T        1        2
H       -2.52527860       3.43134900      -1.58719270  T        1        2
H       -3.64487368       2.74045740      -0.37894746  T        1        2
C       -2.02573259      -3.53625782       3.01242104  F        0        1
C       -1.00019726      -3.02113070       4.02316207  F        0        1
O       -0.43353930      -1.88145849       3.35024774  F        0        1
C       -0.74313238      -1.93443513       2.05480444  F        0        1
O       -1.59764398      -2.92346257       1.78304255  F        0        1
O       -0.30483869      -1.17477359       1.23152808  F        0        1
H       -2.00876965      -4.61648719       2.88377669  F        0        1
H       -3.04095228      -3.19965787       3.22786939  F        0        1
H       -1.43951967      -2.68468175       4.95992355  F        0        1
H       -0.19843644      -3.73426828       4.21984972  F        0        1
C       -0.67095179      -5.39272737      -3.66185371  F        0        1
C       -0.63738385      -4.08775562      -4.45939710  F        0        1
O       -0.57865069      -3.08443239      -3.42942291  F        0        1
C       -0.25753159      -3.65719607      -2.26815593  F        0        1
O       -0.20633922      -4.98661564      -2.36172244  F        0        1
O       -0.03425861      -3.05150532      -1.25338855  F        0        1
H       -1.67727591      -5.79956292      -3.55339273  F        0        1
H        0.00206291      -6.15703588      -4.04494182  F        0        1
H        0.25234405      -3.98989224      -5.08295373  F        0        1
H       -1.53200337      -3.91774095      -5.05493187  F        0        1
41
Properties=species:S:1:pos:R:3:is_solvent:L:1:group_label:I:1:tags:I:1 Coordinates=T from=T ORCA-job=T Li1EC4_r03_charge_1_spin_1_liquid_t_traj_2_frame_0000=T E=T -1378.044320340532=T solvent_indices_0based="_JSON [11, 12, 13, 14, 15, 16, 17, 18, 19, 20]" complex_indices_0based="_JSON [0, 1, 2, 3, 4, 5, 6, 7, 8, 9, 10, 21, 22, 23, 24, 25, 26, 27, 28, 29, 30, 31, 32, 33, 34, 35, 36, 37, 38, 39, 40]" complex_indices_1based="_JSON [1, 2, 3, 4, 5, 6, 7, 8, 9, 10, 11, 22, 23, 24, 25, 26, 27, 28, 29, 30, 31, 32, 33, 34, 35, 36, 37, 38, 39, 40, 41]" pbc="F F F"
Li      -0.37213700      -1.22668200      -0.70375400  F        0        1
C        4.10470400      -0.00029400      -0.13879300  F        0        1
C        3.99776200       1.39833000      -0.74816500  F        0        1
O        2.74767800       1.34243800      -1.45967400  F        0        1
C        2.04728400       0.28813400      -1.04035400  F        0        1
O        2.75098300      -0.48269400      -0.20809100  F        0        1
O        0.91570100       0.06020600      -1.37827400  F        0        1
H        4.73786800      -0.67168100      -0.72076200  F        0        1
H        4.41810600      -0.00030500       0.90312500  F        0        1
H        3.92818200       2.18659500       0.00276000  F        0        1
H        4.78874000       1.62798300      -1.45907900  F        0        1
C       -3.95662200       1.97670900      -2.41787200  T        1        2
C       -3.08710200       2.54618800      -1.29620800  T        1        2
O       -2.15649800       1.47870500      -1.04086200  T        1        2
C       -2.60596900       0.35439200      -1.60181200  T        1        2
O       -3.70089000       0.56247400      -2.33427100  T        1        2
O       -2.09129100      -0.72381000      -1.46281700  T        1        2
H       -5.02231400       2.14274100      -2.27496600  T        1        2
H       -3.65260800       2.32050200      -3.40758600  T        1        2
H       -2.52527900       3.43134900      -1.58719300  T        1        2
H       -3.64487400       2.74045700      -0.37894700  T        1        2
C       -2.02573300      -3.53625800       3.01242100  F        0        1
C       -1.00019700      -3.02113100       4.02316200  F        0        1
O       -0.43353900      -1.88145800       3.35024800  F        0        1
C       -0.74313200      -1.93443500       2.05480400  F        0        1
O       -1.59764400      -2.92346300       1.78304300  F        0        1
O       -0.30483900      -1.17477400       1.23152800  F        0        1
H       -2.00877000      -4.61648700       2.88377700  F        0        1
H       -3.04095200      -3.19965800       3.22786900  F        0        1
H       -1.43952000      -2.68468200       4.95992400  F        0        1
H       -0.19843600      -3.73426800       4.21985000  F        0        1
C       -0.67095200      -5.39272700      -3.66185400  F        0        1
C       -0.63738400      -4.08775600      -4.45939700  F        0        1
O       -0.57865100      -3.08443200      -3.42942300  F        0        1
C       -0.25753200      -3.65719600      -2.26815600  F        0        1
O       -0.20633900      -4.98661600      -2.36172200  F        0        1
O       -0.03425900      -3.05150500      -1.25338900  F        0        1
H       -1.67727600      -5.79956300      -3.55339300  F        0        1
H        0.00206300      -6.15703600      -4.04494200  F        0        1
H        0.25234400      -3.98989200      -5.08295400  F        0        1
H       -1.53200300      -3.91774100      -5.05493200  F        0        1
41
Properties=species:S:1:pos:R:3:is_solvent:L:1:group_label:I:1:tags:I:1 Coordinates=T from=T ORCA-job=T Li1EC4_r03_charge_1_spin_1_liquid_t_traj_2_frame_0001=T E=T -1378.040510523060=T solvent_indices_0based="_JSON [11, 12, 13, 14, 15, 16, 17, 18, 19, 20]" complex_indices_0based="_JSON [0, 1, 2, 3, 4, 5, 6, 7, 8, 9, 10, 21, 22, 23, 24, 25, 26, 27, 28, 29, 30, 31, 32, 33, 34, 35, 36, 37, 38, 39, 40]" complex_indices_1based="_JSON [1, 2, 3, 4, 5, 6, 7, 8, 9, 10, 11, 22, 23, 24, 25, 26, 27, 28, 29, 30, 31, 32, 33, 34, 35, 36, 37, 38, 39, 40, 41]" pbc="F F F"
Li      -0.22293887      -1.61452209       0.31521682  F        0        1
C        3.37666411       0.10919507      -1.89765045  F        0        1
C        2.74323230       1.38979862      -2.44047503  F        0        1
O        1.37078853       1.26895473      -2.01050651  F        0        1
C        1.29412615       0.33834907      -1.05925843  F        0        1
O        2.44868181      -0.28760125      -0.87002849  F        0        1
O        0.28600744       0.10408114      -0.43902362  F        0        1
H        3.42313631      -0.69152727      -2.63675309  F        0        1
H        4.35196637       0.26071995      -1.44076209  F        0        1
H        3.16050679       2.29475430      -1.99703202  F        0        1
H        2.75842137       1.46102192      -3.52583728  F        0        1
C       -2.27532580       1.65528876      -2.41892989  T        1        2
C       -3.02906900       1.75402718      -1.09147250  T        1        2
O       -2.82261562       0.45660366      -0.50700718  T        1        2
C       -2.33656035      -0.37867001      -1.42366164  T        1        2
O       -2.12126894       0.23465119      -2.59511470  T        1        2
O       -2.11879243      -1.54489612      -1.22777659  T        1        2
H       -2.83179640       2.05026314      -3.26655366  T        1        2
H       -1.28044020       2.09949830      -2.37400669  T        1        2
H       -2.62107392       2.50337268      -0.41624839  T        1        2
H       -4.10196901       1.90517588      -1.21773532  T        1        2
C       -2.27513977      -4.35121750       3.68059103  F        0        1
C       -1.58343901      -3.64615012       4.84894919  F        0        1
O       -1.02874155      -2.46906872       4.22836045  F        0        1
C       -1.03699858      -2.62241076       2.90964635  F        0        1
O       -1.66718401      -3.73127649       2.52990841  F        0        1
O       -0.52902712      -1.84016027       2.14463828  F        0        1
H       -2.08069312      -5.42064788       3.63705761  F        0        1
H       -3.34847299      -4.16175815       3.64063302  F        0        1
H       -2.26463960      -3.32974101       5.63581071  F        0        1
H       -0.76174710      -4.22489649       5.27238690  F        0        1
C       -1.09790525      -3.53561468      -3.79942843  F        0        1
C       -0.19008604      -2.35101685      -4.14245719  F        0        1
O        0.42519648      -2.03633018      -2.87904396  F        0        1
C        0.12859308      -2.99001739      -1.98710934  F        0        1
O       -0.61322045      -3.95344038      -2.51122345  F        0        1
O        0.51269827      -2.96904029      -0.84445322  F        0        1
H       -2.14219712      -3.24571713      -3.68478255  F        0        1
H       -1.00591712      -4.37236087      -4.48860844  F        0        1
H        0.59800205      -2.60609911      -4.85200261  F        0        1
H       -0.73984269      -1.47469628      -4.48011979  F        0        1
41
Properties=species:S:1:pos:R:3:is_solvent:L:1:group_label:I:1:tags:I:1 Coordinates=T from=T ORCA-job=T Li1EC4_r03_charge_1_spin_1_liquid_t_traj_2_frame_0001=T E=T -1378.040510523060=T solvent_indices_0based="_JSON [11, 12, 13, 14, 15, 16, 17, 18, 19, 20]" complex_indices_0based="_JSON [0, 1, 2, 3, 4, 5, 6, 7, 8, 9, 10, 21, 22, 23, 24, 25, 26, 27, 28, 29, 30, 31, 32, 33, 34, 35, 36, 37, 38, 39, 40]" complex_indices_1based="_JSON [1, 2, 3, 4, 5, 6, 7, 8, 9, 10, 11, 22, 23, 24, 25, 26, 27, 28, 29, 30, 31, 32, 33, 34, 35, 36, 37, 38, 39, 40, 41]" pbc="F F F"
Li      -0.22293900      -1.61452200       0.31521700  F        0        1
C        3.37666400       0.10919500      -1.89765000  F        0        1
C        2.74323200       1.38979900      -2.44047500  F        0        1
O        1.37078900       1.26895500      -2.01050700  F        0        1
C        1.29412600       0.33834900      -1.05925800  F        0        1
O        2.44868200      -0.28760100      -0.87002800  F        0        1
O        0.28600700       0.10408100      -0.43902400  F        0        1
H        3.42313600      -0.69152700      -2.63675300  F        0        1
H        4.35196600       0.26072000      -1.44076200  F        0        1
H        3.16050700       2.29475400      -1.99703200  F        0        1
H        2.75842100       1.46102200      -3.52583700  F        0        1
C       -2.27532600       1.65528900      -2.41893000  T        1        2
C       -3.02906900       1.75402700      -1.09147300  T        1        2
O       -2.82261600       0.45660400      -0.50700700  T        1        2
C       -2.33656000      -0.37867000      -1.42366200  T        1        2
O       -2.12126900       0.23465100      -2.59511500  T        1        2
O       -2.11879200      -1.54489600      -1.22777700  T        1        2
H       -2.83179600       2.05026300      -3.26655400  T        1        2
H       -1.28044000       2.09949800      -2.37400700  T        1        2
H       -2.62107400       2.50337300      -0.41624800  T        1        2
H       -4.10196900       1.90517600      -1.21773500  T        1        2
C       -2.27514000      -4.35121800       3.68059100  F        0        1
C       -1.58343900      -3.64615000       4.84894900  F        0        1
O       -1.02874200      -2.46906900       4.22836000  F        0        1
C       -1.03699900      -2.62241100       2.90964600  F        0        1
O       -1.66718400      -3.73127600       2.52990800  F        0        1
O       -0.52902700      -1.84016000       2.14463800  F        0        1
H       -2.08069300      -5.42064800       3.63705800  F        0        1
H       -3.34847300      -4.16175800       3.64063300  F        0        1
H       -2.26464000      -3.32974100       5.63581100  F        0        1
H       -0.76174700      -4.22489600       5.27238700  F        0        1
C       -1.09790500      -3.53561500      -3.79942800  F        0        1
C       -0.19008600      -2.35101700      -4.14245700  F        0        1
O        0.42519600      -2.03633000      -2.87904400  F        0        1
C        0.12859300      -2.99001700      -1.98710900  F        0        1
O       -0.61322000      -3.95344000      -2.51122300  F        0        1
O        0.51269800      -2.96904000      -0.84445300  F        0        1
H       -2.14219700      -3.24571700      -3.68478300  F        0        1
H       -1.00591700      -4.37236100      -4.48860800  F        0        1
H        0.59800200      -2.60609900      -4.85200300  F        0        1
H       -0.73984300      -1.47469600      -4.48012000  F        0        1
41
Properties=species:S:1:pos:R:3:is_solvent:L:1:group_label:I:1:tags:I:1 Coordinates=T from=T ORCA-job=T Li1EC4_r03_charge_1_spin_1_liquid_t_traj_2_frame_0002=T E=T -1378.043015986088=T solvent_indices_0based="_JSON [11, 12, 13, 14, 15, 16, 17, 18, 19, 20]" complex_indices_0based="_JSON [0, 1, 2, 3, 4, 5, 6, 7, 8, 9, 10, 21, 22, 23, 24, 25, 26, 27, 28, 29, 30, 31, 32, 33, 34, 35, 36, 37, 38, 39, 40]" complex_indices_1based="_JSON [1, 2, 3, 4, 5, 6, 7, 8, 9, 10, 11, 22, 23, 24, 25, 26, 27, 28, 29, 30, 31, 32, 33, 34, 35, 36, 37, 38, 39, 40, 41]" pbc="F F F"
Li      -0.06968093      -0.83919059      -0.49756218  F        0        1
C        4.28440301       0.69796136      -0.08267100  F        0        1
C        4.05305617       2.12767422      -0.57573948  F        0        1
O        2.74881802       2.04928069      -1.18603403  F        0        1
C        2.15097435       0.92563679      -0.80217427  F        0        1
O        2.95583292       0.13874717      -0.09285929  F        0        1
O        1.00664681       0.65163747      -1.07053717  F        0        1
H        4.90661887       0.10752862      -0.75617832  F        0        1
H        4.67185412       0.64225399       0.93226823  F        0        1
H        4.00544730       2.85704131       0.23363603  F        0        1
H        4.76574680       2.45150030      -1.33111471  F        0        1
C       -3.58086417       0.74722230      -2.22878049  T        1        2
C       -2.25874049       1.21983268      -1.62235872  T        1        2
O       -1.85126315       0.07699126      -0.85159422  T        1        2
C       -2.89305988      -0.77405706      -0.69188143  T        1        2
O       -3.95204298      -0.36425681      -1.39132166  T        1        2
O       -2.82760156      -1.75332882      -0.01428849  T        1        2
H       -4.37332687       1.49096325      -2.18080483  T        1        2
H       -3.46914596       0.37954047      -3.24957650  T        1        2
H       -1.48573065       1.43433064      -2.35667627  T        1        2
H       -2.37746800       2.06448643      -0.94309986  T        1        2
C       -1.88057701      -3.91442388       2.34115363  F        0        1
C       -2.08974373      -2.93672790       3.49615829  F        0        1
O       -1.49205806      -1.72587700       2.99568694  F        0        1
C       -0.73971964      -2.01360053       1.93775240  F        0        1
O       -0.80971283      -3.29859993       1.60111631  F        0        1
O       -0.06002313      -1.19900561       1.36220902  F        0        1
H       -1.55646703      -4.90405121       2.65574433  F        0        1
H       -2.74757616      -3.98114078       1.68322804  F        0        1
H       -3.13663932      -2.73752751       3.71482858  F        0        1
H       -1.56246813      -3.22745545       4.40596142  F        0        1
C       -1.62955624      -4.42284066      -3.90489693  F        0        1
C       -2.39533039      -3.11369951      -4.09954927  F        0        1
O       -1.87932946      -2.28283191      -3.03994403  F        0        1
C       -0.75646511      -2.83259584      -2.55318434  F        0        1
O       -0.51285141      -4.02277305      -3.08867393  F        0        1
O       -0.05608085      -2.30365237      -1.73339891  F        0        1
H       -2.20099143      -5.17187674      -3.35548144  F        0        1
H       -1.24463030      -4.84733734      -4.82949249  F        0        1
H       -2.17663034      -2.62771834      -5.05131261  F        0        1
H       -3.47045943      -3.21496301      -3.96515256  F        0        1
41
Properties=species:S:1:pos:R:3:is_solvent:L:1:group_label:I:1:tags:I:1 Coordinates=T from=T ORCA-job=T Li1EC4_r03_charge_1_spin_1_liquid_t_traj_2_frame_0002=T E=T -1378.043015986088=T solvent_indices_0based="_JSON [11, 12, 13, 14, 15, 16, 17, 18, 19, 20]" complex_indices_0based="_JSON [0, 1, 2, 3, 4, 5, 6, 7, 8, 9, 10, 21, 22, 23, 24, 25, 26, 27, 28, 29, 30, 31, 32, 33, 34, 35, 36, 37, 38, 39, 40]" complex_indices_1based="_JSON [1, 2, 3, 4, 5, 6, 7, 8, 9, 10, 11, 22, 23, 24, 25, 26, 27, 28, 29, 30, 31, 32, 33, 34, 35, 36, 37, 38, 39, 40, 41]" pbc="F F F"
Li      -0.06968100      -0.83919100      -0.49756200  F        0        1
C        4.28440300       0.69796100      -0.08267100  F        0        1
C        4.05305600       2.12767400      -0.57573900  F        0        1
O        2.74881800       2.04928100      -1.18603400  F        0        1
C        2.15097400       0.92563700      -0.80217400  F        0        1
O        2.95583300       0.13874700      -0.09285900  F        0        1
O        1.00664700       0.65163700      -1.07053700  F        0        1
H        4.90661900       0.10752900      -0.75617800  F        0        1
H        4.67185400       0.64225400       0.93226800  F        0        1
H        4.00544700       2.85704100       0.23363600  F        0        1
H        4.76574700       2.45150000      -1.33111500  F        0        1
C       -3.58086400       0.74722200      -2.22878000  T        1        2
C       -2.25874000       1.21983300      -1.62235900  T        1        2
O       -1.85126300       0.07699100      -0.85159400  T        1        2
C       -2.89306000      -0.77405700      -0.69188100  T        1        2
O       -3.95204300      -0.36425700      -1.39132200  T        1        2
O       -2.82760200      -1.75332900      -0.01428800  T        1        2
H       -4.37332700       1.49096300      -2.18080500  T        1        2
H       -3.46914600       0.37954000      -3.24957600  T        1        2
H       -1.48573100       1.43433100      -2.35667600  T        1        2
H       -2.37746800       2.06448600      -0.94310000  T        1        2
C       -1.88057700      -3.91442400       2.34115400  F        0        1
C       -2.08974400      -2.93672800       3.49615800  F        0        1
O       -1.49205800      -1.72587700       2.99568700  F        0        1
C       -0.73972000      -2.01360100       1.93775200  F        0        1
O       -0.80971300      -3.29860000       1.60111600  F        0        1
O       -0.06002300      -1.19900600       1.36220900  F        0        1
H       -1.55646700      -4.90405100       2.65574400  F        0        1
H       -2.74757600      -3.98114100       1.68322800  F        0        1
H       -3.13663900      -2.73752800       3.71482900  F        0        1
H       -1.56246800      -3.22745500       4.40596100  F        0        1
C       -1.62955600      -4.42284100      -3.90489700  F        0        1
C       -2.39533000      -3.11370000      -4.09954900  F        0        1
O       -1.87932900      -2.28283200      -3.03994400  F        0        1
C       -0.75646500      -2.83259600      -2.55318400  F        0        1
O       -0.51285100      -4.02277300      -3.08867400  F        0        1
O       -0.05608100      -2.30365200      -1.73339900  F        0        1
H       -2.20099100      -5.17187700      -3.35548100  F        0        1
H       -1.24463000      -4.84733700      -4.82949200  F        0        1
H       -2.17663000      -2.62771800      -5.05131300  F        0        1
H       -3.47045900      -3.21496300      -3.96515300  F        0        1
41
Properties=species:S:1:pos:R:3:is_solvent:L:1:group_label:I:1:tags:I:1 Coordinates=T from=T ORCA-job=T Li1EC4_r03_charge_1_spin_1_liquid_t_traj_2_frame_0003=T E=T -1378.033328921007=T solvent_indices_0based="_JSON [11, 12, 13, 14, 15, 16, 17, 18, 19, 20]" complex_indices_0based="_JSON [0, 1, 2, 3, 4, 5, 6, 7, 8, 9, 10, 21, 22, 23, 24, 25, 26, 27, 28, 29, 30, 31, 32, 33, 34, 35, 36, 37, 38, 39, 40]" complex_indices_1based="_JSON [1, 2, 3, 4, 5, 6, 7, 8, 9, 10, 11, 22, 23, 24, 25, 26, 27, 28, 29, 30, 31, 32, 33, 34, 35, 36, 37, 38, 39, 40, 41]" pbc="F F F"
Li       0.72626833      -1.21223467      -0.64368277  F        0        1
C        4.96705065       0.79519523       0.25457811  F        0        1
C        4.58701118       2.16328596      -0.31165735  F        0        1
O        3.38017414       1.87922436      -1.03847325  F        0        1
C        2.91326666       0.68721906      -0.67437251  F        0        1
O        3.74233431       0.04320366       0.13807073  F        0        1
O        1.85831773       0.23991784      -1.04414782  F        0        1
H        5.73270959       0.29315142      -0.32966766  F        0        1
H        5.25032734       0.81712929       1.29904003  F        0        1
H        4.35199663       2.89175752       0.45714698  F        0        1
H        5.32036241       2.57535915      -1.00358507  F        0        1
C       -5.01530863       0.59065751      -1.77522711  T        1        2
C       -3.81969206       1.54445232      -1.70253337  T        1        2
O       -2.76487754       0.69419750      -1.22400370  T        1        2
C       -3.29782650      -0.41468475      -0.67930509  T        1        2
O       -4.62280481      -0.48104178      -0.89957601  T        1        2
O       -2.67297309      -1.23905423      -0.08229364  T        1        2
H       -5.94042136       1.02213857      -1.40101164  T        1        2
H       -5.17364053       0.17971084      -2.77543785  T        1        2
H       -3.52701915       1.95634057      -2.66806924  T        1        2
H       -3.96484714       2.35320226      -0.98156830  T        1        2
C       -2.36171020      -3.52409619       2.03915679  F        0        1
C       -2.38983743      -2.40472361       3.08616542  F        0        1
O       -1.34007893      -1.52161907       2.65713748  F        0        1
C       -0.66224223      -2.08209277       1.66887808  F        0        1
O       -1.12184186      -3.28761162       1.35082675  F        0        1
O        0.28809223      -1.56290333       1.13591817  F        0        1
H       -2.32437569      -4.52153624       2.46552611  F        0        1
H       -3.17162034      -3.44272307       1.31291749  F        0        1
H       -3.32676518      -1.84842753       3.08736445  F        0        1
H       -2.14803958      -2.74378072       4.09310390  F        0        1
C       -1.29192006      -4.62394898      -4.09526450  F        0        1
C       -2.32894593      -3.50520683      -4.00208229  F        0        1
O       -1.80801566      -2.67780813      -2.94173519  F        0        1
C       -0.52706298      -2.98596772      -2.73508372  F        0        1
O       -0.14278598      -4.04010230      -3.45019672  F        0        1
O        0.20510494      -2.38021272      -1.99776978  F        0        1
H       -1.57787707      -5.51993026      -3.53907206  F        0        1
H       -1.01870374      -4.88702937      -5.11587896  F        0        1
H       -2.38501408      -2.90098963      -4.90991061  F        0        1
H       -3.32136008      -3.84910151      -3.71555299  F        0        1
41
Properties=species:S:1:pos:R:3:is_solvent:L:1:group_label:I:1:tags:I:1 Coordinates=T from=T ORCA-job=T Li1EC4_r03_charge_1_spin_1_liquid_t_traj_2_frame_0003=T E=T -1378.033328921007=T solvent_indices_0based="_JSON [11, 12, 13, 14, 15, 16, 17, 18, 19, 20]" complex_indices_0based="_JSON [0, 1, 2, 3, 4, 5, 6, 7, 8, 9, 10, 21, 22, 23, 24, 25, 26, 27, 28, 29, 30, 31, 32, 33, 34, 35, 36, 37, 38, 39, 40]" complex_indices_1based="_JSON [1, 2, 3, 4, 5, 6, 7, 8, 9, 10, 11, 22, 23, 24, 25, 26, 27, 28, 29, 30, 31, 32, 33, 34, 35, 36, 37, 38, 39, 40, 41]" pbc="F F F"
Li       0.72626800      -1.21223500      -0.64368300  F        0        1
C        4.96705100       0.79519500       0.25457800  F        0        1
C        4.58701100       2.16328600      -0.31165700  F        0        1
O        3.38017400       1.87922400      -1.03847300  F        0        1
C        2.91326700       0.68721900      -0.67437300  F        0        1
O        3.74233400       0.04320400       0.13807100  F        0        1
O        1.85831800       0.23991800      -1.04414800  F        0        1
H        5.73271000       0.29315100      -0.32966800  F        0        1
H        5.25032700       0.81712900       1.29904000  F        0        1
H        4.35199700       2.89175800       0.45714700  F        0        1
H        5.32036200       2.57535900      -1.00358500  F        0        1
C       -5.01530900       0.59065800      -1.77522700  T        1        2
C       -3.81969200       1.54445200      -1.70253300  T        1        2
O       -2.76487800       0.69419800      -1.22400400  T        1        2
C       -3.29782600      -0.41468500      -0.67930500  T        1        2
O       -4.62280500      -0.48104200      -0.89957600  T        1        2
O       -2.67297300      -1.23905400      -0.08229400  T        1        2
H       -5.94042100       1.02213900      -1.40101200  T        1        2
H       -5.17364100       0.17971100      -2.77543800  T        1        2
H       -3.52701900       1.95634100      -2.66806900  T        1        2
H       -3.96484700       2.35320200      -0.98156800  T        1        2
C       -2.36171000      -3.52409600       2.03915700  F        0        1
C       -2.38983700      -2.40472400       3.08616500  F        0        1
O       -1.34007900      -1.52161900       2.65713700  F        0        1
C       -0.66224200      -2.08209300       1.66887800  F        0        1
O       -1.12184200      -3.28761200       1.35082700  F        0        1
O        0.28809200      -1.56290300       1.13591800  F        0        1
H       -2.32437600      -4.52153600       2.46552600  F        0        1
H       -3.17162000      -3.44272300       1.31291700  F        0        1
H       -3.32676500      -1.84842800       3.08736400  F        0        1
H       -2.14804000      -2.74378100       4.09310400  F        0        1
C       -1.29192000      -4.62394900      -4.09526500  F        0        1
C       -2.32894600      -3.50520700      -4.00208200  F        0        1
O       -1.80801600      -2.67780800      -2.94173500  F        0        1
C       -0.52706300      -2.98596800      -2.73508400  F        0        1
O       -0.14278600      -4.04010200      -3.45019700  F        0        1
O        0.20510500      -2.38021300      -1.99777000  F        0        1
H       -1.57787700      -5.51993000      -3.53907200  F        0        1
H       -1.01870400      -4.88702900      -5.11587900  F        0        1
H       -2.38501400      -2.90099000      -4.90991100  F        0        1
H       -3.32136000      -3.84910200      -3.71555300  F        0        1
41
Properties=species:S:1:pos:R:3:is_solvent:L:1:group_label:I:1:tags:I:1 Coordinates=T from=T ORCA-job=T Li1EC4_r03_charge_1_spin_1_liquid_t_traj_2_frame_0004=T E=T -1378.033390780440=T solvent_indices_0based="_JSON [11, 12, 13, 14, 15, 16, 17, 18, 19, 20]" complex_indices_0based="_JSON [0, 1, 2, 3, 4, 5, 6, 7, 8, 9, 10, 21, 22, 23, 24, 25, 26, 27, 28, 29, 30, 31, 32, 33, 34, 35, 36, 37, 38, 39, 40]" complex_indices_1based="_JSON [1, 2, 3, 4, 5, 6, 7, 8, 9, 10, 11, 22, 23, 24, 25, 26, 27, 28, 29, 30, 31, 32, 33, 34, 35, 36, 37, 38, 39, 40, 41]" pbc="F F F"
Li       0.64191723      -1.39059090      -0.80696800  F        0        1
C        4.75702997       0.98354005       0.02685061  F        0        1
C        4.26512697       2.28232601      -0.61636822  F        0        1
O        3.07269429       1.86454444      -1.30971038  F        0        1