41
Properties=species:S:1:pos:R:3:is_solvent:L:1:group_label:I:1:tags:I:1 Coordinates=T from=T ORCA-job=T Li1EC4_r05_charge_1_spin_1_liquid_t_traj_2_frame_0000=T E=T -1378.044233061329=T solvent_indices_0based="_JSON [11, 12, 13, 14, 15, 16, 17, 18, 19, 20]" complex_indices_0based="_JSON [0, 1, 2, 3, 4, 5, 6, 7, 8, 9, 10, 21, 22, 23, 24, 25, 26, 27, 28, 29, 30, 31, 32, 33, 34, 35, 36, 37, 38, 39, 40]" complex_indices_1based="_JSON [1, 2, 3, 4, 5, 6, 7, 8, 9, 10, 11, 22, 23, 24, 25, 26, 27, 28, 29, 30, 31, 32, 33, 34, 35, 36, 37, 38, 39, 40, 41]" pbc="F F F"
Li      -0.28347348      -0.46628620       0.91789290  F        0        1
C        4.17676124       0.16087677       0.00781316  F        0        1
C        4.18671344       1.68352354      -0.12618515  F        0        1
O        2.78975284       2.01968521      -0.03070886  F        0        1
C        2.11952967       0.98051506       0.46794350  F        0        1
O        2.89623415      -0.09432928       0.61334012  F        0        1
O        0.95160746       1.01474136       0.75624249  F        0        1
H        4.20647849      -0.35197009      -0.95466989  F        0        1
H        4.95190278      -0.22700584       0.66526178  F        0        1
H        4.71409132       2.18119454       0.68896035  F        0        1
H        4.56032329       2.03595773      -1.08526128  F        0        1
C       -1.56584562      -4.48532615      -1.13514578  T        1        2
C       -0.84179240      -4.26647080      -2.46354149  T        1        2
O        0.06380954      -3.18979759      -2.15938108  T        1        2
C       -0.31764998      -2.59908482      -1.02575214  T        1        2
O       -1.31865333      -3.25393316      -0.43183338  T        1        2
O        0.18533956      -1.59673187      -0.59309223  T        1        2
H       -2.64135623      -4.61196918      -1.24015542  T        1        2
H       -1.14531722      -5.30371794      -0.54890734  T        1        2
H       -0.25830171      -5.12390630      -2.79214573  T        1        2
H       -1.50839907      -3.93691651      -3.26182682  T        1        2
C       -2.83033749       3.44534685       1.31854185  F        0        1
C       -4.04354874       2.99098014       0.50783701  F        0        1
O       -3.62205120       1.71259392      -0.00299831  F        0        1
C       -2.55962367       1.29084423       0.68470419  F        0        1
O       -2.12180011       2.21343110       1.54485061  F        0        1
O       -2.06152978       0.20552838       0.54413584  F        0        1
H       -2.17577516       4.11850685       0.76283269  F        0        1
H       -3.08394131       3.87956864       2.28328738  F        0        1
H       -4.93433633       2.83703748       1.11876476  F        0        1
H       -4.27440065       3.63881971      -0.33512552  F        0        1
C       -1.87405869      -0.82627179       5.45488734  F        0        1
C       -1.17261545      -2.15041785       5.75689480  F        0        1
O       -0.27587686      -2.29673764       4.64103097  F        0        1
C       -0.64317758      -1.46639515       3.66451657  F        0        1
O       -1.63221133      -0.65116185       4.04660414  F        0        1
O       -0.14152379      -1.45679661       2.57324887  F        0        1
H       -2.94933344      -0.85333817       5.61898894  F        0        1
H       -1.43360183       0.01924396       5.98548443  F        0        1
H       -0.58351187      -2.13483799       6.67146204  F        0        1
H       -1.85294262      -3.00322647       5.76282804  F        0        1
41
Properties=species:S:1:pos:R:3:is_solvent:L:1:group_label:I:1:tags:I:1 Coordinates=T from=T ORCA-job=T Li1EC4_r05_charge_1_spin_1_liquid_t_traj_2_frame_0000=T E=T -1378.044233061329=T solvent_indices_0based="_JSON [11, 12, 13, 14, 15, 16, 17, 18, 19, 20]" complex_indices_0based="_JSON [0, 1, 2, 3, 4, 5, 6, 7, 8, 9, 10, 21, 22, 23, 24, 25, 26, 27, 28, 29, 30, 31, 32, 33, 34, 35, 36, 37, 38, 39, 40]" complex_indices_1based="_JSON [1, 2, 3, 4, 5, 6, 7, 8, 9, 10, 11, 22, 23, 24, 25, 26, 27, 28, 29, 30, 31, 32, 33, 34, 35, 36, 37, 38, 39, 40, 41]" pbc="F F F"
Li      -0.28347300      -0.46628600       0.91789300  F        0        1
C        4.17676100       0.16087700       0.00781300  F        0        1
C        4.18671300       1.68352400      -0.12618500  F        0        1
O        2.78975300       2.01968500      -0.03070900  F        0        1
C        2.11953000       0.98051500       0.46794400  F        0        1
O        2.89623400      -0.09432900       0.61334000  F        0        1
O        0.95160700       1.01474100       0.75624200  F        0        1
H        4.20647800      -0.35197000      -0.95467000  F        0        1
H        4.95190300      -0.22700600       0.66526200  F        0        1
H        4.71409100       2.18119500       0.68896000  F        0        1
H        4.56032300       2.03595800      -1.08526100  F        0        1
C       -1.56584600      -4.48532600      -1.13514600  T        1        2
C       -0.84179200      -4.26647100      -2.46354100  T        1        2
O        0.06381000      -3.18979800      -2.15938100  T        1        2
C       -0.31765000      -2.59908500      -1.02575200  T        1        2
O       -1.31865300      -3.25393300      -0.43183300  T        1        2
O        0.18534000      -1.59673200      -0.59309200  T        1        2
H       -2.64135600      -4.61196900      -1.24015500  T        1        2
H       -1.14531700      -5.30371800      -0.54890700  T        1        2
H       -0.25830200      -5.12390600      -2.79214600  T        1        2
H       -1.50839900      -3.93691700      -3.26182700  T        1        2
C       -2.83033700       3.44534700       1.31854200  F        0        1
C       -4.04354900       2.99098000       0.50783700  F        0        1
O       -3.62205100       1.71259400      -0.00299800  F        0        1
C       -2.55962400       1.29084400       0.68470400  F        0        1
O       -2.12180000       2.21343100       1.54485100  F        0        1
O       -2.06153000       0.20552800       0.54413600  F        0        1
H       -2.17577500       4.11850700       0.76283300  F        0        1
H       -3.08394100       3.87956900       2.28328700  F        0        1
H       -4.93433600       2.83703700       1.11876500  F        0        1
H       -4.27440100       3.63882000      -0.33512600  F        0        1
C       -1.87405900      -0.82627200       5.45488700  F        0        1
C       -1.17261500      -2.15041800       5.75689500  F        0        1
O       -0.27587700      -2.29673800       4.64103100  F        0        1
C       -0.64317800      -1.46639500       3.66451700  F        0        1
O       -1.63221100      -0.65116200       4.04660400  F        0        1
O       -0.14152400      -1.45679700       2.57324900  F        0        1
H       -2.94933300      -0.85333800       5.61898900  F        0        1
H       -1.43360200       0.01924400       5.98548400  F        0        1
H       -0.58351200      -2.13483800       6.67146200  F        0        1
H       -1.85294300      -3.00322600       5.76282800  F        0        1
41
Properties=species:S:1:pos:R:3:is_solvent:L:1:group_label:I:1:tags:I:1 Coordinates=T from=T ORCA-job=T Li1EC4_r05_charge_1_spin_1_liquid_t_traj_2_frame_0001=T E=T -1378.039657172635=T solvent_indices_0based="_JSON [11, 12, 13, 14, 15, 16, 17, 18, 19, 20]" complex_indices_0based="_JSON [0, 1, 2, 3, 4, 5, 6, 7, 8, 9, 10, 21, 22, 23, 24, 25, 26, 27, 28, 29, 30, 31, 32, 33, 34, 35, 36, 37, 38, 39, 40]" complex_indices_1based="_JSON [1, 2, 3, 4, 5, 6, 7, 8, 9, 10, 11, 22, 23, 24, 25, 26, 27, 28, 29, 30, 31, 32, 33, 34, 35, 36, 37, 38, 39, 40, 41]" pbc="F F F"
Li      -0.62621281      -0.33876081       1.26130287  F        0        1
C        3.71474615      -0.17984493       0.28760490  F        0        1
C        3.65315052       1.12172643      -0.50873759  F        0        1
O        2.29367248       1.55179668      -0.30085423  F        0        1
C        1.77355839       0.87948781       0.72221912  F        0        1
O        2.61415031      -0.03455404       1.20438146  F        0        1
O        0.67059712       1.08243944       1.16697896  F        0        1
H        3.52484571      -1.06055505      -0.32715397  F        0        1
H        4.62986623      -0.30157617       0.86291669  F        0        1
H        4.31852052       1.89454614      -0.12081624  F        0        1
H        3.81081617       0.98929333      -1.57685600  F        0        1
C       -1.36620993      -4.08250660      -1.44102665  T        1        2
C       -0.31761287      -4.04303840      -2.55285621  T        1        2
O        0.64033395      -3.09170534      -2.05454551  T        1        2
C        0.08799465      -2.38616850      -1.06175830  T        1        2
O       -1.11536584      -2.86151578      -0.72402065  T        1        2
O        0.61064665      -1.44167075      -0.53562714  T        1        2
H       -2.39081790      -4.06387389      -1.80666723  T        1        2
H       -1.22781679      -4.91843727      -0.75360605  T        1        2
H        0.18952648      -4.99262167      -2.71075264  T        1        2
H       -0.71327239      -3.66756045      -3.49780688  T        1        2
C       -3.24509640       3.47214602       0.77425965  F        0        1
C       -4.19700045       2.93354733      -0.29226319  F        0        1
O       -3.62659157       1.64654862      -0.60240626  F        0        1
C       -2.78237355       1.29762001       0.36603561  F        0        1
O       -2.60487536       2.27480087       1.25596243  F        0        1
O       -2.24713267       0.22054549       0.43109923  F        0        1
H       -2.47512869       4.12776606       0.36491412  F        0        1
H       -3.74688122       3.95529087       1.60967672  F        0        1
H       -5.21041178       2.77492036       0.07931934  F        0        1
H       -4.21835540       3.52835811      -1.20273068  F        0        1
C       -0.73812976      -1.08716111       6.04213657  F        0        1
C       -0.92429389      -2.59947244       5.92256193  F        0        1
O       -0.65712889      -2.84304666       4.52762521  F        0        1
C       -0.71415095      -1.69199190       3.86171575  F        0        1
O       -0.85769581      -0.64501833       4.67562468  F        0        1
O       -0.64389893      -1.61046029       2.66307403  F        0        1
H       -1.50913606      -0.59591837       6.63162840  F        0        1
H        0.25149841      -0.80612242       6.40481682  F        0        1
H       -0.21687488      -3.17702833       6.51357182  F        0        1
H       -1.94443959      -2.92236847       6.13477108  F        0        1
41
Properties=species:S:1:pos:R:3:is_solvent:L:1:group_label:I:1:tags:I:1 Coordinates=T from=T ORCA-job=T Li1EC4_r05_charge_1_spin_1_liquid_t_traj_2_frame_0001=T E=T -1378.039657172635=T solvent_indices_0based="_JSON [11, 12, 13, 14, 15, 16, 17, 18, 19, 20]" complex_indices_0based="_JSON [0, 1, 2, 3, 4, 5, 6, 7, 8, 9, 10, 21, 22, 23, 24, 25, 26, 27, 28, 29, 30, 31, 32, 33, 34, 35, 36, 37, 38, 39, 40]" complex_indices_1based="_JSON [1, 2, 3, 4, 5, 6, 7, 8, 9, 10, 11, 22, 23, 24, 25, 26, 27, 28, 29, 30, 31, 32, 33, 34, 35, 36, 37, 38, 39, 40, 41]" pbc="F F F"
Li      -0.62621300      -0.33876100       1.26130300  F        0        1
C        3.71474600      -0.17984500       0.28760500  F        0        1
C        3.65315100       1.12172600      -0.50873800  F        0        1
O        2.29367200       1.55179700      -0.30085400  F        0        1
C        1.77355800       0.87948800       0.72221900  F        0        1
O        2.61415000      -0.03455400       1.20438100  F        0        1
O        0.67059700       1.08243900       1.16697900  F        0        1
H        3.52484600      -1.06055500      -0.32715400  F        0        1
H        4.62986600      -0.30157600       0.86291700  F        0        1
H        4.31852100       1.89454600      -0.12081600  F        0        1
H        3.81081600       0.98929300      -1.57685600  F        0        1
C       -1.36621000      -4.08250700      -1.44102700  T        1        2
C       -0.31761300      -4.04303800      -2.55285600  T        1        2
O        0.64033400      -3.09170500      -2.05454600  T        1        2
C        0.08799500      -2.38616800      -1.06175800  T        1        2
O       -1.11536600      -2.86151600      -0.72402100  T        1        2
O        0.61064700      -1.44167100      -0.53562700  T        1        2
H       -2.39081800      -4.06387400      -1.80666700  T        1        2
H       -1.22781700      -4.91843700      -0.75360600  T        1        2
H        0.18952600      -4.99262200      -2.71075300  T        1        2
H       -0.71327200      -3.66756000      -3.49780700  T        1        2
C       -3.24509600       3.47214600       0.77426000  F        0        1
C       -4.19700000       2.93354700      -0.29226300  F        0        1
O       -3.62659200       1.64654900      -0.60240600  F        0        1
C       -2.78237400       1.29762000       0.36603600  F        0        1
O       -2.60487500       2.27480100       1.25596200  F        0        1
O       -2.24713300       0.22054500       0.43109900  F        0        1
H       -2.47512900       4.12776600       0.36491400  F        0        1
H       -3.74688100       3.95529100       1.60967700  F        0        1
H       -5.21041200       2.77492000       0.07931900  F        0        1
H       -4.21835500       3.52835800      -1.20273100  F        0        1
C       -0.73813000      -1.08716100       6.04213700  F        0        1
C       -0.92429400      -2.59947200       5.92256200  F        0        1
O       -0.65712900      -2.84304700       4.52762500  F        0        1
C       -0.71415100      -1.69199200       3.86171600  F        0        1
O       -0.85769600      -0.64501800       4.67562500  F        0        1
O       -0.64389900      -1.61046000       2.66307400  F        0        1
H       -1.50913600      -0.59591800       6.63162800  F        0        1
H        0.25149800      -0.80612200       6.40481700  F        0        1
H       -0.21687500      -3.17702800       6.51357200  F        0        1
H       -1.94444000      -2.92236800       6.13477100  F        0        1
41
Properties=species:S:1:pos:R:3:is_solvent:L:1:group_label:I:1:tags:I:1 Coordinates=T from=T ORCA-job=T Li1EC4_r05_charge_1_spin_1_liquid_t_traj_2_frame_0002=T E=T -1378.035556185150=T solvent_indices_0based="_JSON [11, 12, 13, 14, 15, 16, 17, 18, 19, 20]" complex_indices_0based="_JSON [0, 1, 2, 3, 4, 5, 6, 7, 8, 9, 10, 21, 22, 23, 24, 25, 26, 27, 28, 29, 30, 31, 32, 33, 34, 35, 36, 37, 38, 39, 40]" complex_indices_1based="_JSON [1, 2, 3, 4, 5, 6, 7, 8, 9, 10, 11, 22, 23, 24, 25, 26, 27, 28, 29, 30, 31, 32, 33, 34, 35, 36, 37, 38, 39, 40, 41]" pbc="F F F"
Li      -0.79256650      -0.22927471       1.41216892  F        0        1
C        3.62891416      -0.50697960       0.40821965  F        0        1
C        3.59782803       0.64543903      -0.59798428  F        0        1
O        2.27363070       1.18445300      -0.43038201  F        0        1
C        1.71956605       0.66751080       0.65875256  F        0        1
O        2.51682945      -0.20405536       1.27085231  F        0        1
O        0.62147916       0.97094941       1.06007770  F        0        1
H        3.43834300      -1.47467912      -0.05482446  F        0        1
H        4.53328699      -0.53628954       1.01234002  F        0        1
H        4.31776959       1.43358897      -0.37408097  F        0        1
H        3.70497877       0.31883625      -1.63026330  F        0        1
C       -1.20574982      -3.99327954      -2.08771467  T        1        2
C        0.09000255      -4.10663851      -2.88994627  T        1        2
O        0.99589055      -3.27008228      -2.14861383  T        1        2
C        0.29405042      -2.47032902      -1.33185875  T        1        2
O       -1.00817644      -2.78371635      -1.33674288  T        1        2
O        0.77331370      -1.58765415      -0.67886753  T        1        2
H       -2.09392163      -3.87527640      -2.70498964  T        1        2
H       -1.34288478      -4.81699748      -1.38509755  T        1        2
H        0.49944768      -5.11418632      -2.92195503  T        1        2
H        0.00040795      -3.70462402      -3.90048414  T        1        2
C       -3.34763083       3.60483850       0.60523881  F        0        1
C       -4.45513214       2.93047398      -0.20357578  F        0        1
O       -3.95856014       1.58636893      -0.36168762  F        0        1
C       -2.97889565       1.37572341       0.51304562  F        0        1
O       -2.64920033       2.48235229       1.17843530  F        0        1
O       -2.45491277       0.30431399       0.68588161  F        0        1
H       -2.64405071       4.16181061      -0.01504676  F        0        1
H       -3.71376238       4.23227185       1.41487203  F        0        1
H       -5.40504432       2.88067359       0.33053198  F        0        1
H       -4.60231034       3.35987772      -1.19209761  F        0        1
C       -0.63967105      -1.22373012       6.16393846  F        0        1
C       -0.76588507      -2.73376575       5.96081539  F        0        1
O       -0.57639312      -2.88095454       4.54001533  F        0        1
C       -0.71874478      -1.69651886       3.95202533  F        0        1
O       -0.85008665      -0.70643196       4.83534880  F        0        1
O       -0.72785476      -1.53958765       2.75860938  F        0        1
H       -1.39819817      -0.80296464       6.82051523  F        0        1
H        0.35378125      -0.91831378       6.49506505  F        0        1
H        0.00291422      -3.30994652       6.47109526  F        0        1
H       -1.75431996      -3.11926120       6.21416790  F        0        1
41
Properties=species:S:1:pos:R:3:is_solvent:L:1:group_label:I:1:tags:I:1 Coordinates=T from=T ORCA-job=T Li1EC4_r05_charge_1_spin_1_liquid_t_traj_2_frame_0002=T E=T -1378.035556185150=T solvent_indices_0based="_JSON [11, 12, 13, 14, 15, 16, 17, 18, 19, 20]" complex_indices_0based="_JSON [0, 1, 2, 3, 4, 5, 6, 7, 8, 9, 10, 21, 22, 23, 24, 25, 26, 27, 28, 29, 30, 31, 32, 33, 34, 35, 36, 37, 38, 39, 40]" complex_indices_1based="_JSON [1, 2, 3, 4, 5, 6, 7, 8, 9, 10, 11, 22, 23, 24, 25, 26, 27, 28, 29, 30, 31, 32, 33, 34, 35, 36, 37, 38, 39, 40, 41]" pbc="F F F"
Li      -0.79256600      -0.22927500       1.41216900  F        0        1
C        3.62891400      -0.50698000       0.40822000  F        0        1
C        3.59782800       0.64543900      -0.59798400  F        0        1
O        2.27363100       1.18445300      -0.43038200  F        0        1
C        1.71956600       0.66751100       0.65875300  F        0        1
O        2.51682900      -0.20405500       1.27085200  F        0        1
O        0.62147900       0.97094900       1.06007800  F        0        1
H        3.43834300      -1.47467900      -0.05482400  F        0        1
H        4.53328700      -0.53629000       1.01234000  F        0        1
H        4.31777000       1.43358900      -0.37408100  F        0        1
H        3.70497900       0.31883600      -1.63026300  F        0        1
C       -1.20575000      -3.99328000      -2.08771500  T        1        2
C        0.09000300      -4.10663900      -2.88994600  T        1        2
O        0.99589100      -3.27008200      -2.14861400  T        1        2
C        0.29405000      -2.47032900      -1.33185900  T        1        2
O       -1.00817600      -2.78371600      -1.33674300  T        1        2
O        0.77331400      -1.58765400      -0.67886800  T        1        2
H       -2.09392200      -3.87527600      -2.70499000  T        1        2
H       -1.34288500      -4.81699700      -1.38509800  T        1        2
H        0.49944800      -5.11418600      -2.92195500  T        1        2
H        0.00040800      -3.70462400      -3.90048400  T        1        2
C       -3.34763100       3.60483800       0.60523900  F        0        1
C       -4.45513200       2.93047400      -0.20357600  F        0        1
O       -3.95856000       1.58636900      -0.36168800  F        0        1
C       -2.97889600       1.37572300       0.51304600  F        0        1
O       -2.64920000       2.48235200       1.17843500  F        0        1
O       -2.45491300       0.30431400       0.68588200  F        0        1
H       -2.64405100       4.16181100      -0.01504700  F        0        1
H       -3.71376200       4.23227200       1.41487200  F        0        1
H       -5.40504400       2.88067400       0.33053200  F        0        1
H       -4.60231000       3.35987800      -1.19209800  F        0        1
C       -0.63967100      -1.22373000       6.16393800  F        0        1
C       -0.76588500      -2.73376600       5.96081500  F        0        1
O       -0.57639300      -2.88095500       4.54001500  F        0        1
C       -0.71874500      -1.69651900       3.95202500  F        0        1
O       -0.85008700      -0.70643200       4.83534900  F        0        1
O       -0.72785500      -1.53958800       2.75860900  F        0        1
H       -1.39819800      -0.80296500       6.82051500  F        0        1
H        0.35378100      -0.91831400       6.49506500  F        0        1
H        0.00291400      -3.30994700       6.47109500  F        0        1
H       -1.75432000      -3.11926100       6.21416800  F        0        1
41
Properties=species:S:1:pos:R:3:is_solvent:L:1:group_label:I:1:tags:I:1 Coordinates=T from=T ORCA-job=T Li1EC4_r05_charge_1_spin_1_liquid_t_traj_2_frame_0003=T E=T -1378.033439724894=T solvent_indices_0based="_JSON [11, 12, 13, 14, 15, 16, 17, 18, 19, 20]" complex_indices_0based="_JSON [0, 1, 2, 3, 4, 5, 6, 7, 8, 9, 10, 21, 22, 23, 24, 25, 26, 27, 28, 29, 30, 31, 32, 33, 34, 35, 36, 37, 38, 39, 40]" complex_indices_1based="_JSON [1, 2, 3, 4, 5, 6, 7, 8, 9, 10, 11, 22, 23, 24, 25, 26, 27, 28, 29, 30, 31, 32, 33, 34, 35, 36, 37, 38, 39, 40, 41]" pbc="F F F"
Li      -0.53123552      -0.46482023       1.80107733  F        0        1
C        3.71080944      -0.40980213      -0.11438513  F        0        1
C        3.30577908       0.67741919      -1.12052972  F        0        1
O        2.08671940       1.20874331      -0.57062545  F        0        1
C        1.76389612       0.54683040       0.52949611  F        0        1
O        2.69076814      -0.32775163       0.89649677  F        0        1
O        0.74291361       0.74139531       1.14879546  F        0        1
H        3.67962053      -1.40985584      -0.54273888  F        0        1
H        4.67308784      -0.22577704       0.36104119  F        0        1
H        4.02554655       1.49128248      -1.19507616  F        0        1
H        3.08126126       0.27465278      -2.10628088  F        0        1
C       -0.89585013      -4.13168537      -2.33308324  T        1        2
C        0.18236479      -3.95165779      -3.40170070  T        1        2
O        1.08985752      -3.02317746      -2.78534120  T        1        2
C        0.48356353      -2.42810062      -1.74618803  T        1        2
O       -0.71515749      -2.97577514      -1.49871984  T        1        2
O        0.95523799      -1.52378043      -1.12005750  T        1        2
H       -1.90949181      -4.11796846      -2.72877649  T        1        2
H       -0.74457403      -5.02436265      -1.72360610  T        1        2
H        0.72552040      -4.86592561      -3.63253053  T        1        2
H       -0.19993827      -3.50208025      -4.31954155  T        1        2
C       -3.07234553       3.18241423       0.56397532  F        0        1
C       -4.13351375       2.42852697      -0.23820330  F        0        1
O       -3.65461216       1.06942987      -0.19979588  F        0        1
C       -2.73755227       0.95430350       0.75590917  F        0        1
O       -2.43222076       2.12750586       1.30808654  F        0        1
O       -2.24435422      -0.09434826       1.08902597  F        0        1
H       -2.31910195       3.65942543      -0.06457220  F        0        1
H       -3.48391784       3.90024358       1.26996320  F        0        1
H       -5.12035628       2.45421313       0.22587838  F        0        1
H       -4.19935308       2.73958091      -1.27848037  F        0        1
C       -1.40467460      -1.10808938       6.43114093  F        0        1
C       -1.08602848      -2.60360386       6.43612869  F        0        1
O       -0.43682960      -2.79559076       5.16326394  F        0        1
C       -0.67362231      -1.74506216       4.38626495  F        0        1
O       -1.31354554      -0.77010345       5.03222231  F        0        1
O       -0.34590003      -1.67988573       3.22819010  F        0        1
H       -2.40876216      -0.87167915       6.77633438  F        0        1
H       -0.66970925      -0.51237902       6.97372851  F        0        1
H       -0.39603063      -2.90261689       7.22218067  F        0        1
H       -1.97832414      -3.23005336       6.45892042  F        0        1
41
Properties=species:S:1:pos:R:3:is_solvent:L:1:group_label:I:1:tags:I:1 Coordinates=T from=T ORCA-job=T Li1EC4_r05_charge_1_spin_1_liquid_t_traj_2_frame_0003=T E=T -1378.033439724894=T solvent_indices_0based="_JSON [11, 12, 13, 14, 15, 16, 17, 18, 19, 20]" complex_indices_0based="_JSON [0, 1, 2, 3, 4, 5, 6, 7, 8, 9, 10, 21, 22, 23, 24, 25, 26, 27, 28, 29, 30, 31, 32, 33, 34, 35, 36, 37, 38, 39, 40]" complex_indices_1based="_JSON [1, 2, 3, 4, 5, 6, 7, 8, 9, 10, 11, 22, 23, 24, 25, 26, 27, 28, 29, 30, 31, 32, 33, 34, 35, 36, 37, 38, 39, 40, 41]" pbc="F F F"
Li      -0.53123600      -0.46482000       1.80107700  F        0        1
C        3.71080900      -0.40980200      -0.11438500  F        0        1
C        3.30577900       0.67741900      -1.12053000  F        0        1
O        2.08671900       1.20874300      -0.57062500  F        0        1
C        1.76389600       0.54683000       0.52949600  F        0        1
O        2.69076800      -0.32775200       0.89649700  F        0        1
O        0.74291400       0.74139500       1.14879500  F        0        1
H        3.67962100      -1.40985600      -0.54273900  F        0        1
H        4.67308800      -0.22577700       0.36104100  F        0        1
H        4.02554700       1.49128200      -1.19507600  F        0        1
H        3.08126100       0.27465300      -2.10628100  F        0        1
C       -0.89585000      -4.13168500      -2.33308300  T        1        2
C        0.18236500      -3.95165800      -3.40170100  T        1        2
O        1.08985800      -3.02317700      -2.78534100  T        1        2
C        0.48356400      -2.42810100      -1.74618800  T        1        2
O       -0.71515700      -2.97577500      -1.49872000  T        1        2
O        0.95523800      -1.52378000      -1.12005800  T        1        2
H       -1.90949200      -4.11796800      -2.72877600  T        1        2
H       -0.74457400      -5.02436300      -1.72360600  T        1        2
H        0.72552000      -4.86592600      -3.63253100  T        1        2
H       -0.19993800      -3.50208000      -4.31954200  T        1        2
C       -3.07234600       3.18241400       0.56397500  F        0        1
C       -4.13351400       2.42852700      -0.23820300  F        0        1
O       -3.65461200       1.06943000      -0.19979600  F        0        1
C       -2.73755200       0.95430300       0.75590900  F        0        1
O       -2.43222100       2.12750600       1.30808700  F        0        1
O       -2.24435400      -0.09434800       1.08902600  F        0        1
H       -2.31910200       3.65942500      -0.06457200  F        0        1
H       -3.48391800       3.90024400       1.26996300  F        0        1
H       -5.12035600       2.45421300       0.22587800  F        0        1
H       -4.19935300       2.73958100      -1.27848000  F        0        1
C       -1.40467500      -1.10808900       6.43114100  F        0        1
C       -1.08602800      -2.60360400       6.43612900  F        0        1
O       -0.43683000      -2.79559100       5.16326400  F        0        1
C       -0.67362200      -1.74506200       4.38626500  F        0        1
O       -1.31354600      -0.77010300       5.03222200  F        0        1
O       -0.34590000      -1.67988600       3.22819000  F        0        1
H       -2.40876200      -0.87167900       6.77633400  F        0        1
H       -0.66970900      -0.51237900       6.97372900  F        0        1
H       -0.39603100      -2.90261700       7.22218100  F        0        1
H       -1.97832400      -3.23005300       6.45892000  F        0        1
41
Properties=species:S:1:pos:R:3:is_solvent:L:1:group_label:I:1:tags:I:1 Coordinates=T from=T ORCA-job=T Li1EC4_r05_charge_1_spin_1_liquid_t_traj_2_frame_0004=T E=T -1378.033099004316=T solvent_indices_0based="_JSON [11, 12, 13, 14, 15, 16, 17, 18, 19, 20]" complex_indices_0based="_JSON [0, 1, 2, 3, 4, 5, 6, 7, 8, 9, 10, 21, 22, 23, 24, 25, 26, 27, 28, 29, 30, 31, 32, 33, 34, 35, 36, 37, 38, 39, 40]" complex_indices_1based="_JSON [1, 2, 3, 4, 5, 6, 7, 8, 9, 10, 11, 22, 23, 24, 25, 26, 27, 28, 29, 30, 31, 32, 33, 34, 35, 36, 37, 38, 39, 40, 41]" pbc="F F F"
Li      -0.57055431       0.08716647       1.83960479  F        0        1
C        3.71299817      -0.78572724       0.08103307  F        0        1
C        3.45633517       0.00397892      -1.20986710  F        0        1
O        2.27115209       0.76437521      -0.90828624  F        0        1