41
Properties=species:S:1:pos:R:3:is_solvent:L:1:group_label:I:1:tags:I:1 Coordinates=T from=T ORCA-job=T Li1EC4_r04_charge_1_spin_1_liquid_t_traj_3_frame_0000=T E=T -1378.044560075925=T solvent_indices_0based="_JSON [21, 22, 23, 24, 25, 26, 27, 28, 29, 30]" complex_indices_0based="_JSON [0, 1, 2, 3, 4, 5, 6, 7, 8, 9, 10, 11, 12, 13, 14, 15, 16, 17, 18, 19, 20, 31, 32, 33, 34, 35, 36, 37, 38, 39, 40]" complex_indices_1based="_JSON [1, 2, 3, 4, 5, 6, 7, 8, 9, 10, 11, 12, 13, 14, 15, 16, 17, 18, 19, 20, 21, 32, 33, 34, 35, 36, 37, 38, 39, 40, 41]" pbc="F F F"
Li       1.01291615       0.11521382       0.31852417  F        0        1
C        4.54181665       1.83153206      -2.08408534  F        0        1
C        5.09917161       2.77311641      -1.01667155  F        0        1
O        4.23248448       2.52724934       0.10708857  F        0        1
C        3.13868433       1.89026551      -0.31083285  F        0        1
O        3.21480502       1.55586860      -1.60041494  F        0        1
O        2.19197339       1.65255401       0.39296725  F        0        1
H        4.46220943       2.28555483      -3.06956378  F        0        1
H        5.08511916       0.88746886      -2.14583134  F        0        1
H        6.11994180       2.54274927      -0.71912454  F        0        1
H        5.01463877       3.82616413      -1.28884802  F        0        1
C       -2.93505278       2.40902594      -0.64092748  F        0        1
C       -3.53158826       1.37929250      -1.60171126  F        0        1
O       -2.40126641       0.54735363      -1.92209027  F        0        1
C       -1.42600034       0.76807734      -1.04077488  F        0        1
O       -1.71019997       1.78109154      -0.21994172  F        0        1
O       -0.40789958       0.12837415      -0.99686786  F        0        1
H       -2.68535399       3.35291087      -1.12752225  F        0        1
H       -3.54804570       2.59175966       0.23918364  F        0        1
H       -4.29449607       0.75367118      -1.13642114  F        0        1
H       -3.91331420       1.81142094      -2.52436917  F        0        1
C        0.80037848       0.41109449       5.42139081  T        1        2
C        2.19211783       0.50651872       4.79685684  T        1        2
O        1.95957740       0.08354973       3.44131842  T        1        2
C        0.65185979       0.14653426       3.17880443  T        1        2
O       -0.06516574       0.41561973       4.26995674  T        1        2
O        0.17402949      -0.02366221       2.08810703  T        1        2
H        0.63870638      -0.52053815       5.96562549  T        1        2
H        0.54128430       1.26144177       6.04852716  T        1        2
H        2.58104141       1.52562782       4.77459781  T        1        2
H        2.92144884      -0.16340969       5.24736817  T        1        2
C        0.88724029      -4.40045474      -0.93316821  F        0        1
C        2.17894391      -4.38525670      -1.75187590  F        0        1
O        2.83391117      -3.18700379      -1.29446921  F        0        1
C        1.95507240      -2.42492816      -0.64253125  F        0        1
O        0.78404224      -3.04007210      -0.47415486  F        0        1
O        2.19752395      -1.31340456      -0.25070896  F        0        1
H        0.00106402      -4.63384805      -1.51958461  F        0        1
H        0.94277002      -5.05245055      -0.06033136  F        0        1
H        2.83306789      -5.23167207      -1.55335311  F        0        1
H        2.00320769      -4.28922856      -2.82414364  F        0        1
41
Properties=species:S:1:pos:R:3:is_solvent:L:1:group_label:I:1:tags:I:1 Coordinates=T from=T ORCA-job=T Li1EC4_r04_charge_1_spin_1_liquid_t_traj_3_frame_0000=T E=T -1378.044560075925=T solvent_indices_0based="_JSON [21, 22, 23, 24, 25, 26, 27, 28, 29, 30]" complex_indices_0based="_JSON [0, 1, 2, 3, 4, 5, 6, 7, 8, 9, 10, 11, 12, 13, 14, 15, 16, 17, 18, 19, 20, 31, 32, 33, 34, 35, 36, 37, 38, 39, 40]" complex_indices_1based="_JSON [1, 2, 3, 4, 5, 6, 7, 8, 9, 10, 11, 12, 13, 14, 15, 16, 17, 18, 19, 20, 21, 32, 33, 34, 35, 36, 37, 38, 39, 40, 41]" pbc="F F F"
Li       1.01291600       0.11521400       0.31852400  F        0        1
C        4.54181700       1.83153200      -2.08408500  F        0        1
C        5.09917200       2.77311600      -1.01667200  F        0        1
O        4.23248400       2.52724900       0.10708900  F        0        1
C        3.13868400       1.89026600      -0.31083300  F        0        1
O        3.21480500       1.55586900      -1.60041500  F        0        1
O        2.19197300       1.65255400       0.39296700  F        0        1
H        4.46220900       2.28555500      -3.06956400  F        0        1
H        5.08511900       0.88746900      -2.14583100  F        0        1
H        6.11994200       2.54274900      -0.71912500  F        0        1
H        5.01463900       3.82616400      -1.28884800  F        0        1
C       -2.93505300       2.40902600      -0.64092700  F        0        1
C       -3.53158800       1.37929300      -1.60171100  F        0        1
O       -2.40126600       0.54735400      -1.92209000  F        0        1
C       -1.42600000       0.76807700      -1.04077500  F        0        1
O       -1.71020000       1.78109200      -0.21994200  F        0        1
O       -0.40790000       0.12837400      -0.99686800  F        0        1
H       -2.68535400       3.35291100      -1.12752200  F        0        1
H       -3.54804600       2.59176000       0.23918400  F        0        1
H       -4.29449600       0.75367100      -1.13642100  F        0        1
H       -3.91331400       1.81142100      -2.52436900  F        0        1
C        0.80037800       0.41109400       5.42139100  T        1        2
C        2.19211800       0.50651900       4.79685700  T        1        2
O        1.95957700       0.08355000       3.44131800  T        1        2
C        0.65186000       0.14653400       3.17880400  T        1        2
O       -0.06516600       0.41562000       4.26995700  T        1        2
O        0.17402900      -0.02366200       2.08810700  T        1        2
H        0.63870600      -0.52053800       5.96562500  T        1        2
H        0.54128400       1.26144200       6.04852700  T        1        2
H        2.58104100       1.52562800       4.77459800  T        1        2
H        2.92144900      -0.16341000       5.24736800  T        1        2
C        0.88724000      -4.40045500      -0.93316800  F        0        1
C        2.17894400      -4.38525700      -1.75187600  F        0        1
O        2.83391100      -3.18700400      -1.29446900  F        0        1
C        1.95507200      -2.42492800      -0.64253100  F        0        1
O        0.78404200      -3.04007200      -0.47415500  F        0        1
O        2.19752400      -1.31340500      -0.25070900  F        0        1
H        0.00106400      -4.63384800      -1.51958500  F        0        1
H        0.94277000      -5.05245100      -0.06033100  F        0        1
H        2.83306800      -5.23167200      -1.55335300  F        0        1
H        2.00320800      -4.28922900      -2.82414400  F        0        1
41
Properties=species:S:1:pos:R:3:is_solvent:L:1:group_label:I:1:tags:I:1 Coordinates=T from=T ORCA-job=T Li1EC4_r04_charge_1_spin_1_liquid_t_traj_3_frame_0001=T E=T -1378.038232422076=T solvent_indices_0based="_JSON [21, 22, 23, 24, 25, 26, 27, 28, 29, 30]" complex_indices_0based="_JSON [0, 1, 2, 3, 4, 5, 6, 7, 8, 9, 10, 11, 12, 13, 14, 15, 16, 17, 18, 19, 20, 31, 32, 33, 34, 35, 36, 37, 38, 39, 40]" complex_indices_1based="_JSON [1, 2, 3, 4, 5, 6, 7, 8, 9, 10, 11, 12, 13, 14, 15, 16, 17, 18, 19, 20, 21, 32, 33, 34, 35, 36, 37, 38, 39, 40, 41]" pbc="F F F"
Li       1.02359030      -0.21143158      -0.46639737  F        0        1
C        5.20586552       1.05461063       0.93833654  F        0        1
C        5.07656918       2.56339545       0.73983087  F        0        1
O        3.68506291       2.71718634       0.39859735  F        0        1
C        3.19629125       1.53351103       0.02725523  F        0        1
O        4.07155910       0.54673779       0.21608986  F        0        1
O        2.09441257       1.37997226      -0.43286974  F        0        1
H        6.10989786       0.63017596       0.50703292  F        0        1
H        5.10769748       0.75071247       1.98185325  F        0        1
H        5.27825841       3.14604058       1.63636869  F        0        1
H        5.67556757       2.93754386      -0.09175968  F        0        1
C       -3.08026901       2.06730907       0.14422735  F        0        1
C       -3.95310127       0.89803291      -0.31406740  F        0        1
O       -3.01482276       0.04976752      -1.00170698  F        0        1
C       -1.77463335       0.41522055      -0.68487653  F        0        1
O       -1.74842363       1.52949688       0.04648909  F        0        1
O       -0.79392501      -0.19304294      -1.02850643  F        0        1
H       -3.14744520       2.93484416      -0.51373057  F        0        1
H       -3.25692097       2.36466161       1.17586529  F        0        1
H       -4.37899252       0.33234867       0.51565584  F        0        1
H       -4.73580701       1.18335963      -1.01379564  F        0        1
C        1.10854878       1.67949159       4.79136066  T        1        2
C        2.24714274       2.11024353       3.87037597  T        1        2
O        2.14401048       1.17524266       2.78357881  T        1        2
C        0.91485823       0.61575289       2.79677453  T        1        2
O        0.24147869       0.95760158       3.90225466  T        1        2
O        0.48474635      -0.08981351       1.93413801  T        1        2
H        1.43591274       1.00109372       5.58119235  T        1        2
H        0.55205501       2.51032763       5.22013150  T        1        2
H        2.11667326       3.11827271       3.47157377  T        1        2
H        3.23174190       2.01152586       4.32465542  T        1        2
C        0.85981120      -3.98851741      -3.30152489  F        0        1
C        1.90903427      -4.81273063      -2.55518900  F        0        1
O        2.16761622      -4.01377856      -1.38444750  F        0        1
C        1.69096992      -2.78612314      -1.57583090  F        0        1
O        1.01016140      -2.68070662      -2.71658493  F        0        1
O        1.86266521      -1.87647734      -0.80491200  F        0        1
H        1.04137470      -3.91032575      -4.37127726  F        0        1
H       -0.16030712      -4.32807992      -3.11699429  F        0        1
H        1.55166877      -5.78846707      -2.23311639  F        0        1
H        2.84336468      -4.91857860      -3.10816692  F        0        1
41
Properties=species:S:1:pos:R:3:is_solvent:L:1:group_label:I:1:tags:I:1 Coordinates=T from=T ORCA-job=T Li1EC4_r04_charge_1_spin_1_liquid_t_traj_3_frame_0001=T E=T -1378.038232422076=T solvent_indices_0based="_JSON [21, 22, 23, 24, 25, 26, 27, 28, 29, 30]" complex_indices_0based="_JSON [0, 1, 2, 3, 4, 5, 6, 7, 8, 9, 10, 11, 12, 13, 14, 15, 16, 17, 18, 19, 20, 31, 32, 33, 34, 35, 36, 37, 38, 39, 40]" complex_indices_1based="_JSON [1, 2, 3, 4, 5, 6, 7, 8, 9, 10, 11, 12, 13, 14, 15, 16, 17, 18, 19, 20, 21, 32, 33, 34, 35, 36, 37, 38, 39, 40, 41]" pbc="F F F"
Li       1.02359000      -0.21143200      -0.46639700  F        0        1
C        5.20586600       1.05461100       0.93833700  F        0        1
C        5.07656900       2.56339500       0.73983100  F        0        1
O        3.68506300       2.71718600       0.39859700  F        0        1
C        3.19629100       1.53351100       0.02725500  F        0        1
O        4.07155900       0.54673800       0.21609000  F        0        1
O        2.09441300       1.37997200      -0.43287000  F        0        1
H        6.10989800       0.63017600       0.50703300  F        0        1
H        5.10769700       0.75071200       1.98185300  F        0        1
H        5.27825800       3.14604100       1.63636900  F        0        1
H        5.67556800       2.93754400      -0.09176000  F        0        1
C       -3.08026900       2.06730900       0.14422700  F        0        1
C       -3.95310100       0.89803300      -0.31406700  F        0        1
O       -3.01482300       0.04976800      -1.00170700  F        0        1
C       -1.77463300       0.41522100      -0.68487700  F        0        1
O       -1.74842400       1.52949700       0.04648900  F        0        1
O       -0.79392500      -0.19304300      -1.02850600  F        0        1
H       -3.14744500       2.93484400      -0.51373100  F        0        1
H       -3.25692100       2.36466200       1.17586500  F        0        1
H       -4.37899300       0.33234900       0.51565600  F        0        1
H       -4.73580700       1.18336000      -1.01379600  F        0        1
C        1.10854900       1.67949200       4.79136100  T        1        2
C        2.24714300       2.11024400       3.87037600  T        1        2
O        2.14401000       1.17524300       2.78357900  T        1        2
C        0.91485800       0.61575300       2.79677500  T        1        2
O        0.24147900       0.95760200       3.90225500  T        1        2
O        0.48474600      -0.08981400       1.93413800  T        1        2
H        1.43591300       1.00109400       5.58119200  T        1        2
H        0.55205500       2.51032800       5.22013100  T        1        2
H        2.11667300       3.11827300       3.47157400  T        1        2
H        3.23174200       2.01152600       4.32465500  T        1        2
C        0.85981100      -3.98851700      -3.30152500  F        0        1
C        1.90903400      -4.81273100      -2.55518900  F        0        1
O        2.16761600      -4.01377900      -1.38444800  F        0        1
C        1.69097000      -2.78612300      -1.57583100  F        0        1
O        1.01016100      -2.68070700      -2.71658500  F        0        1
O        1.86266500      -1.87647700      -0.80491200  F        0        1
H        1.04137500      -3.91032600      -4.37127700  F        0        1
H       -0.16030700      -4.32808000      -3.11699400  F        0        1
H        1.55166900      -5.78846700      -2.23311600  F        0        1
H        2.84336500      -4.91857900      -3.10816700  F        0        1
41
Properties=species:S:1:pos:R:3:is_solvent:L:1:group_label:I:1:tags:I:1 Coordinates=T from=T ORCA-job=T Li1EC4_r04_charge_1_spin_1_liquid_t_traj_3_frame_0002=T E=T -1378.037373376872=T solvent_indices_0based="_JSON [21, 22, 23, 24, 25, 26, 27, 28, 29, 30]" complex_indices_0based="_JSON [0, 1, 2, 3, 4, 5, 6, 7, 8, 9, 10, 11, 12, 13, 14, 15, 16, 17, 18, 19, 20, 31, 32, 33, 34, 35, 36, 37, 38, 39, 40]" complex_indices_1based="_JSON [1, 2, 3, 4, 5, 6, 7, 8, 9, 10, 11, 12, 13, 14, 15, 16, 17, 18, 19, 20, 21, 32, 33, 34, 35, 36, 37, 38, 39, 40, 41]" pbc="F F F"
Li       1.21936490      -0.34681143      -0.56862562  F        0        1
C        4.79472579       0.07597962       2.08525987  F        0        1
C        5.28984934       1.45997580       1.66374559  F        0        1
O        4.18380362       1.97461187       0.89408275  F        0        1
C        3.36787562       0.97067815       0.58178311  F        0        1
O        3.73194605      -0.17485648       1.14685197  F        0        1
O        2.40559720       1.08843363      -0.13758927  F        0        1
H        5.54021638      -0.70867823       1.97683698  F        0        1
H        4.36880832       0.06039492       3.08882800  F        0        1
H        5.46993576       2.13245979       2.50002384  F        0        1
H        6.16742510       1.42378714       1.01727773  F        0        1
C       -2.97405532       1.50107623       1.00213864  F        0        1
C       -3.10067076       0.12119105       1.64755589  F        0        1
O       -2.32129898      -0.71202356       0.76849197  F        0        1
C       -1.52353400       0.05887698       0.04132772  F        0        1
O       -1.81896313       1.35041207       0.15511991  F        0        1
O       -0.63997198      -0.36551140      -0.66432937  F        0        1
H       -3.82616988       1.76109053       0.37277267  F        0        1
H       -2.76979026       2.29423132       1.71730486  F        0        1
H       -2.64780442       0.07544207       2.63831099  F        0        1
H       -4.11812277      -0.26281352       1.67244680  F        0        1
C        0.41909660       3.55067548       3.39124337  T        1        2
C        1.89096199       3.22484024       3.14524895  T        1        2
O        1.86470462       1.80803588       2.89862604  T        1        2
C        0.61030077       1.43549624       2.57576653  T        1        2
O       -0.25819841       2.43934010       2.77967420  T        1        2
O        0.31285438       0.35457368       2.16400765  T        1        2
H        0.15974285       3.57267674       4.45098035  T        1        2
H        0.08900294       4.46657371       2.90520193  T        1        2
H        2.29433148       3.71864715       2.25942285  T        1        2
H        2.52678803       3.41600919       4.00754248  T        1        2
C        0.71544988      -3.56296003      -3.96220503  F        0        1
C        1.96179292      -4.38352445      -3.62607712  F        0        1
O        2.40734048      -3.79441535      -2.38829054  F        0        1
C        1.80426989      -2.62303575      -2.21653758  F        0        1
O        0.88092470      -2.38630042      -3.14605972  F        0        1
O        2.07078735      -1.86053746      -1.32060218  F        0        1
H        0.66180505      -3.25313098      -5.00361329  F        0        1
H       -0.21280263      -4.05323818      -3.66643135  F        0        1
H        1.75761776      -5.43743503      -3.44996783  F        0        1
H        2.75931530      -4.27259625      -4.36177463  F        0        1
41
Properties=species:S:1:pos:R:3:is_solvent:L:1:group_label:I:1:tags:I:1 Coordinates=T from=T ORCA-job=T Li1EC4_r04_charge_1_spin_1_liquid_t_traj_3_frame_0002=T E=T -1378.037373376872=T solvent_indices_0based="_JSON [21, 22, 23, 24, 25, 26, 27, 28, 29, 30]" complex_indices_0based="_JSON [0, 1, 2, 3, 4, 5, 6, 7, 8, 9, 10, 11, 12, 13, 14, 15, 16, 17, 18, 19, 20, 31, 32, 33, 34, 35, 36, 37, 38, 39, 40]" complex_indices_1based="_JSON [1, 2, 3, 4, 5, 6, 7, 8, 9, 10, 11, 12, 13, 14, 15, 16, 17, 18, 19, 20, 21, 32, 33, 34, 35, 36, 37, 38, 39, 40, 41]" pbc="F F F"
Li       1.21936500      -0.34681100      -0.56862600  F        0        1
C        4.79472600       0.07598000       2.08526000  F        0        1
C        5.28984900       1.45997600       1.66374600  F        0        1
O        4.18380400       1.97461200       0.89408300  F        0        1
C        3.36787600       0.97067800       0.58178300  F        0        1
O        3.73194600      -0.17485600       1.14685200  F        0        1
O        2.40559700       1.08843400      -0.13758900  F        0        1
H        5.54021600      -0.70867800       1.97683700  F        0        1
H        4.36880800       0.06039500       3.08882800  F        0        1
H        5.46993600       2.13246000       2.50002400  F        0        1
H        6.16742500       1.42378700       1.01727800  F        0        1
C       -2.97405500       1.50107600       1.00213900  F        0        1
C       -3.10067100       0.12119100       1.64755600  F        0        1
O       -2.32129900      -0.71202400       0.76849200  F        0        1
C       -1.52353400       0.05887700       0.04132800  F        0        1
O       -1.81896300       1.35041200       0.15512000  F        0        1
O       -0.63997200      -0.36551100      -0.66432900  F        0        1
H       -3.82617000       1.76109100       0.37277300  F        0        1
H       -2.76979000       2.29423100       1.71730500  F        0        1
H       -2.64780400       0.07544200       2.63831100  F        0        1
H       -4.11812300      -0.26281400       1.67244700  F        0        1
C        0.41909700       3.55067500       3.39124300  T        1        2
C        1.89096200       3.22484000       3.14524900  T        1        2
O        1.86470500       1.80803600       2.89862600  T        1        2
C        0.61030100       1.43549600       2.57576700  T        1        2
O       -0.25819800       2.43934000       2.77967400  T        1        2
O        0.31285400       0.35457400       2.16400800  T        1        2
H        0.15974300       3.57267700       4.45098000  T        1        2
H        0.08900300       4.46657400       2.90520200  T        1        2
H        2.29433100       3.71864700       2.25942300  T        1        2
H        2.52678800       3.41600900       4.00754200  T        1        2
C        0.71545000      -3.56296000      -3.96220500  F        0        1
C        1.96179300      -4.38352400      -3.62607700  F        0        1
O        2.40734000      -3.79441500      -2.38829100  F        0        1
C        1.80427000      -2.62303600      -2.21653800  F        0        1
O        0.88092500      -2.38630000      -3.14606000  F        0        1
O        2.07078700      -1.86053700      -1.32060200  F        0        1
H        0.66180500      -3.25313100      -5.00361300  F        0        1
H       -0.21280300      -4.05323800      -3.66643100  F        0        1
H        1.75761800      -5.43743500      -3.44996800  F        0        1
H        2.75931500      -4.27259600      -4.36177500  F        0        1
41
Properties=species:S:1:pos:R:3:is_solvent:L:1:group_label:I:1:tags:I:1 Coordinates=T from=T ORCA-job=T Li1EC4_r04_charge_1_spin_1_liquid_t_traj_3_frame_0003=T E=T -1378.037158601668=T solvent_indices_0based="_JSON [21, 22, 23, 24, 25, 26, 27, 28, 29, 30]" complex_indices_0based="_JSON [0, 1, 2, 3, 4, 5, 6, 7, 8, 9, 10, 11, 12, 13, 14, 15, 16, 17, 18, 19, 20, 31, 32, 33, 34, 35, 36, 37, 38, 39, 40]" complex_indices_1based="_JSON [1, 2, 3, 4, 5, 6, 7, 8, 9, 10, 11, 12, 13, 14, 15, 16, 17, 18, 19, 20, 21, 32, 33, 34, 35, 36, 37, 38, 39, 40, 41]" pbc="F F F"
Li       1.41083898      -0.56025198      -0.99934595  F        0        1
C        4.38406828       0.38049805       2.00177920  F        0        1
C        4.73806093       1.82758603       1.65208756  F        0        1
O        3.81574014       2.14072204       0.59164309  F        0        1
C        3.26005856       1.02025024       0.14842499  F        0        1
O        3.64459217      -0.04877426       0.84564668  F        0        1
O        2.50797322       0.96351177      -0.79245374  F        0        1
H        5.25151108      -0.26607867       2.11584902  F        0        1
H        3.73310950       0.30072355       2.87253037  F        0        1
H        4.56542580       2.52427907       2.46865287  F        0        1
H        5.75203638       1.93701698       1.26588092  F        0        1
C       -2.09671006       1.94345133       0.55357213  F        0        1
C       -2.65670783       0.92033650       1.54409647  F        0        1
O       -1.73964005      -0.18354334       1.42184346  F        0        1
C       -0.97909363      -0.00857416       0.34814303  F        0        1
O       -1.21660697       1.15044022      -0.26080852  F        0        1
O       -0.18377932      -0.82407847      -0.04892232  F        0        1
H       -2.85235301       2.38871121      -0.09034585  F        0        1
H       -1.50473096       2.71877859       1.03990764  F        0        1
H       -2.63795790       1.26513318       2.57572338  F        0        1
H       -3.65326429       0.56357086       1.28161048  F        0        1
C        0.09029380       3.07726950       4.66195792  T        1        2
C        1.60403645       3.28651148       4.63956882  T        1        2
O        2.04109415       2.36788816       3.62291429  T        1        2
C        0.98780320       1.97436495       2.88404183  T        1        2
O       -0.16357133       2.44964019       3.39195368  T        1        2
O        1.06539997       1.29493433       1.90465400  T        1        2
H       -0.23657087       2.39821500       5.45107548  T        1        2
H       -0.47340167       4.00698285       4.70727871  T        1        2
H        1.88658014       4.29522483       4.33415898  T        1        2
H        2.09479437       3.02863892       5.57616046  T        1        2
C        0.38055190      -4.28635972      -4.00127403  F        0        1
C        1.80603580      -4.83856482      -3.93825251  F        0        1
O        2.43108748      -4.00023523      -2.94711819  F        0        1
C        1.67292769      -2.93219174      -2.72980643  F        0        1
O        0.50999787      -2.99402151      -3.37648106  F        0        1
O        2.00309409      -2.01187764      -2.02571578  F        0        1
H        0.01000539      -4.14259389      -5.01405830  F        0        1
H       -0.33228607      -4.87367634      -3.42103236  F        0        1
H        1.86291941      -5.87013894      -3.59724235  F        0        1
H        2.35318339      -4.72484336      -4.87464142  F        0        1
41
Properties=species:S:1:pos:R:3:is_solvent:L:1:group_label:I:1:tags:I:1 Coordinates=T from=T ORCA-job=T Li1EC4_r04_charge_1_spin_1_liquid_t_traj_3_frame_0003=T E=T -1378.037158601668=T solvent_indices_0based="_JSON [21, 22, 23, 24, 25, 26, 27, 28, 29, 30]" complex_indices_0based="_JSON [0, 1, 2, 3, 4, 5, 6, 7, 8, 9, 10, 11, 12, 13, 14, 15, 16, 17, 18, 19, 20, 31, 32, 33, 34, 35, 36, 37, 38, 39, 40]" complex_indices_1based="_JSON [1, 2, 3, 4, 5, 6, 7, 8, 9, 10, 11, 12, 13, 14, 15, 16, 17, 18, 19, 20, 21, 32, 33, 34, 35, 36, 37, 38, 39, 40, 41]" pbc="F F F"
Li       1.41083900      -0.56025200      -0.99934600  F        0        1
C        4.38406800       0.38049800       2.00177900  F        0        1
C        4.73806100       1.82758600       1.65208800  F        0        1
O        3.81574000       2.14072200       0.59164300  F        0        1
C        3.26005900       1.02025000       0.14842500  F        0        1
O        3.64459200      -0.04877400       0.84564700  F        0        1
O        2.50797300       0.96351200      -0.79245400  F        0        1
H        5.25151100      -0.26607900       2.11584900  F        0        1
H        3.73311000       0.30072400       2.87253000  F        0        1
H        4.56542600       2.52427900       2.46865300  F        0        1
H        5.75203600       1.93701700       1.26588100  F        0        1
C       -2.09671000       1.94345100       0.55357200  F        0        1
C       -2.65670800       0.92033600       1.54409600  F        0        1
O       -1.73964000      -0.18354300       1.42184300  F        0        1
C       -0.97909400      -0.00857400       0.34814300  F        0        1
O       -1.21660700       1.15044000      -0.26080900  F        0        1
O       -0.18377900      -0.82407800      -0.04892200  F        0        1
H       -2.85235300       2.38871100      -0.09034600  F        0        1
H       -1.50473100       2.71877900       1.03990800  F        0        1
H       -2.63795800       1.26513300       2.57572300  F        0        1
H       -3.65326400       0.56357100       1.28161000  F        0        1
C        0.09029400       3.07726900       4.66195800  T        1        2
C        1.60403600       3.28651100       4.63956900  T        1        2
O        2.04109400       2.36788800       3.62291400  T        1        2
C        0.98780300       1.97436500       2.88404200  T        1        2
O       -0.16357100       2.44964000       3.39195400  T        1        2
O        1.06540000       1.29493400       1.90465400  T        1        2
H       -0.23657100       2.39821500       5.45107500  T        1        2
H       -0.47340200       4.00698300       4.70727900  T        1        2
H        1.88658000       4.29522500       4.33415900  T        1        2
H        2.09479400       3.02863900       5.57616000  T        1        2
C        0.38055200      -4.28636000      -4.00127400  F        0        1
C        1.80603600      -4.83856500      -3.93825300  F        0        1
O        2.43108700      -4.00023500      -2.94711800  F        0        1
C        1.67292800      -2.93219200      -2.72980600  F        0        1
O        0.50999800      -2.99402200      -3.37648100  F        0        1
O        2.00309400      -2.01187800      -2.02571600  F        0        1
H        0.01000500      -4.14259400      -5.01405800  F        0        1
H       -0.33228600      -4.87367600      -3.42103200  F        0        1
H        1.86291900      -5.87013900      -3.59724200  F        0        1
H        2.35318300      -4.72484300      -4.87464100  F        0        1
41
Properties=species:S:1:pos:R:3:is_solvent:L:1:group_label:I:1:tags:I:1 Coordinates=T from=T ORCA-job=T Li1EC4_r04_charge_1_spin_1_liquid_t_traj_3_frame_0004=T E=T -1378.033779461151=T solvent_indices_0based="_JSON [21, 22, 23, 24, 25, 26, 27, 28, 29, 30]" complex_indices_0based="_JSON [0, 1, 2, 3, 4, 5, 6, 7, 8, 9, 10, 11, 12, 13, 14, 15, 16, 17, 18, 19, 20, 31, 32, 33, 34, 35, 36, 37, 38, 39, 40]" complex_indices_1based="_JSON [1, 2, 3, 4, 5, 6, 7, 8, 9, 10, 11, 12, 13, 14, 15, 16, 17, 18, 19, 20, 21, 32, 33, 34, 35, 36, 37, 38, 39, 40, 41]" pbc="F F F"
Li       0.86342002      -0.56506414      -1.04751848  F        0        1
C        4.33969382       0.78919621       1.70394095  F        0        1
C        4.46178322       2.22423166       1.18682254  F        0        1
O        3.35211628       2.33678881       0.27625415  F        0        1