41
Properties=species:S:1:pos:R:3:is_solvent:L:1:group_label:I:1:tags:I:1 Coordinates=T from=T ORCA-job=T Li1EC4_r06_charge_1_spin_1_liquid_t_traj_1_frame_0000=T E=T -1378.044751191622=T solvent_indices_0based="_JSON [1, 2, 3, 4, 5, 6, 7, 8, 9, 10]" complex_indices_0based="_JSON [0, 11, 12, 13, 14, 15, 16, 17, 18, 19, 20, 21, 22, 23, 24, 25, 26, 27, 28, 29, 30, 31, 32, 33, 34, 35, 36, 37, 38, 39, 40]" complex_indices_1based="_JSON [1, 12, 13, 14, 15, 16, 17, 18, 19, 20, 21, 22, 23, 24, 25, 26, 27, 28, 29, 30, 31, 32, 33, 34, 35, 36, 37, 38, 39, 40, 41]" pbc="F F F"
Li       1.32159448       0.17680624      -0.97632159  F        0        1
C        4.71132273       1.49956445       1.82993475  T        1        2
C        5.26462736       2.67229561       1.02144865  T        1        2
O        4.48723029       2.61557661      -0.18922453  T        1        2
C        3.41041965       1.85690613       0.01487498  T        1        2
O        3.42995068       1.27141700       1.21493622  T        1        2
O        2.52435705       1.72210938      -0.78771792  T        1        2
H        5.30610397       0.59081340       1.72579640  T        1        2
H        4.55387096       1.72826242       2.88184168  T        1        2
H        5.08803888       3.63847583       1.49668170  T        1        2
H        6.31586146       2.56899229       0.76114631  T        1        2
C        1.39567237       1.36701538      -5.90623389  F        0        1
C        2.75406817       1.26958075      -5.21234009  F        0        1
O        2.42849757       0.61059278      -3.97486196  F        0        1
C        1.11343442       0.69701713      -3.76466590  F        0        1
O        0.47059322       1.20794849      -4.81446408  F        0        1
O        0.56793539       0.35051391      -2.74955006  F        0        1
H        1.21178390       2.33072717      -6.37632111  F        0        1
H        1.22281730       0.56096635      -6.62098827  F        0        1
H        3.47779246       0.65956747      -5.74873337  F        0        1
H        3.18363881       2.24447983      -4.97688341  F        0        1
C       -2.61521734       2.39897911       0.09605882  F        0        1
C       -3.31188359       1.22286554       0.78281266  F        0        1
O       -2.22386967       0.31844308       1.05137514  F        0        1
C       -1.16362496       0.67620260       0.32838516  F        0        1
O       -1.35635815       1.83151868      -0.31018147  F        0        1
O       -0.14926766       0.03144610       0.26457597  F        0        1
H       -3.13401775       2.75598523      -0.79113972  F        0        1
H       -2.41281038       3.22974999       0.77346976  F        0        1
H       -3.78297656       1.48410475       1.72803120  F        0        1
H       -4.02602408       0.71306295       0.13476678  F        0        1
C        0.87795468      -4.34146248      -0.16879024  F        0        1
C        2.32908150      -4.66685879       0.18522317  F        0        1
O        2.94673857      -3.36614593       0.21601662  F        0        1
C        2.15467854      -2.48841652      -0.39880887  F        0        1
O        0.98029090      -3.02393687      -0.73871642  F        0        1
O        2.46611792      -1.34803639      -0.62359655  F        0        1
H        0.44886950      -5.00789286      -0.91403071  F        0        1
H        0.22813487      -4.28573212       0.70583801  F        0        1
H        2.44842434      -5.12813218       1.16324047  F        0        1
H        2.83089632      -5.26524838      -0.57661416  F        0        1
41
Properties=species:S:1:pos:R:3:is_solvent:L:1:group_label:I:1:tags:I:1 Coordinates=T from=T ORCA-job=T Li1EC4_r06_charge_1_spin_1_liquid_t_traj_1_frame_0000=T E=T -1378.044751191622=T solvent_indices_0based="_JSON [1, 2, 3, 4, 5, 6, 7, 8, 9, 10]" complex_indices_0based="_JSON [0, 11, 12, 13, 14, 15, 16, 17, 18, 19, 20, 21, 22, 23, 24, 25, 26, 27, 28, 29, 30, 31, 32, 33, 34, 35, 36, 37, 38, 39, 40]" complex_indices_1based="_JSON [1, 12, 13, 14, 15, 16, 17, 18, 19, 20, 21, 22, 23, 24, 25, 26, 27, 28, 29, 30, 31, 32, 33, 34, 35, 36, 37, 38, 39, 40, 41]" pbc="F F F"
Li       1.32159400       0.17680600      -0.97632200  F        0        1
C        4.71132300       1.49956400       1.82993500  T        1        2
C        5.26462700       2.67229600       1.02144900  T        1        2
O        4.48723000       2.61557700      -0.18922500  T        1        2
C        3.41042000       1.85690600       0.01487500  T        1        2
O        3.42995100       1.27141700       1.21493600  T        1        2
O        2.52435700       1.72210900      -0.78771800  T        1        2
H        5.30610400       0.59081300       1.72579600  T        1        2
H        4.55387100       1.72826200       2.88184200  T        1        2
H        5.08803900       3.63847600       1.49668200  T        1        2
H        6.31586100       2.56899200       0.76114600  T        1        2
C        1.39567200       1.36701500      -5.90623400  F        0        1
C        2.75406800       1.26958100      -5.21234000  F        0        1
O        2.42849800       0.61059300      -3.97486200  F        0        1
C        1.11343400       0.69701700      -3.76466600  F        0        1
O        0.47059300       1.20794800      -4.81446400  F        0        1
O        0.56793500       0.35051400      -2.74955000  F        0        1
H        1.21178400       2.33072700      -6.37632100  F        0        1
H        1.22281700       0.56096600      -6.62098800  F        0        1
H        3.47779200       0.65956700      -5.74873300  F        0        1
H        3.18363900       2.24448000      -4.97688300  F        0        1
C       -2.61521700       2.39897900       0.09605900  F        0        1
C       -3.31188400       1.22286600       0.78281300  F        0        1
O       -2.22387000       0.31844300       1.05137500  F        0        1
C       -1.16362500       0.67620300       0.32838500  F        0        1
O       -1.35635800       1.83151900      -0.31018100  F        0        1
O       -0.14926800       0.03144600       0.26457600  F        0        1
H       -3.13401800       2.75598500      -0.79114000  F        0        1
H       -2.41281000       3.22975000       0.77347000  F        0        1
H       -3.78297700       1.48410500       1.72803100  F        0        1
H       -4.02602400       0.71306300       0.13476700  F        0        1
C        0.87795500      -4.34146200      -0.16879000  F        0        1
C        2.32908100      -4.66685900       0.18522300  F        0        1
O        2.94673900      -3.36614600       0.21601700  F        0        1
C        2.15467900      -2.48841700      -0.39880900  F        0        1
O        0.98029100      -3.02393700      -0.73871600  F        0        1
O        2.46611800      -1.34803600      -0.62359700  F        0        1
H        0.44886900      -5.00789300      -0.91403100  F        0        1
H        0.22813500      -4.28573200       0.70583800  F        0        1
H        2.44842400      -5.12813200       1.16324000  F        0        1
H        2.83089600      -5.26524800      -0.57661400  F        0        1
41
Properties=species:S:1:pos:R:3:is_solvent:L:1:group_label:I:1:tags:I:1 Coordinates=T from=T ORCA-job=T Li1EC4_r06_charge_1_spin_1_liquid_t_traj_1_frame_0001=T E=T -1378.039429573906=T solvent_indices_0based="_JSON [1, 2, 3, 4, 5, 6, 7, 8, 9, 10]" complex_indices_0based="_JSON [0, 11, 12, 13, 14, 15, 16, 17, 18, 19, 20, 21, 22, 23, 24, 25, 26, 27, 28, 29, 30, 31, 32, 33, 34, 35, 36, 37, 38, 39, 40]" complex_indices_1based="_JSON [1, 12, 13, 14, 15, 16, 17, 18, 19, 20, 21, 22, 23, 24, 25, 26, 27, 28, 29, 30, 31, 32, 33, 34, 35, 36, 37, 38, 39, 40, 41]" pbc="F F F"
Li       1.09427582       0.19967887      -0.70384599  F        0        1
C        4.51621917       2.09509536       1.62372583  T        1        2
C        5.33333485       2.98687574       0.68893083  T        1        2
O        4.79956359       2.66150950      -0.60794902  T        1        2
C        3.62547524       2.04014418      -0.45833764  T        1        2
O        3.36429101       1.77253377       0.82553473  T        1        2
O        2.89206448       1.75460673      -1.36536030  T        1        2
H        5.02658161       1.16542836       1.88020534  T        1        2
H        4.17967699       2.60043671       2.52658524  T        1        2
H        5.17340056       4.05126099       0.86761370  T        1        2
H        6.39804425       2.76289605       0.68952268  T        1        2
C        1.93246796       1.93766163      -5.11810795  F        0        1
C        2.96181726       0.90960674      -4.65043869  F        0        1
O        2.19437819       0.08780236      -3.75065916  F        0        1
C        1.11283674       0.76516032      -3.36841995  F        0        1
O        0.92311261       1.86273802      -4.09348548  F        0        1
O        0.38248952       0.41758738      -2.47257200  F        0        1
H        2.31514759       2.95562104      -5.14734094  F        0        1
H        1.47086082       1.68037381      -6.07254478  F        0        1
H        3.34633571       0.27929304      -5.44936188  F        0        1
H        3.77791309       1.35596394      -4.08142842  F        0        1
C       -3.44705407       0.96845154       0.02605536  F        0        1
C       -3.29439979       1.97335403       1.16797053  F        0        1
O       -1.86727691       2.15711673       1.24121984  F        0        1
C       -1.26323246       1.17579163       0.57574826  F        0        1
O       -2.12994878       0.39204835      -0.06496910  F        0        1
O       -0.06933576       1.01399094       0.56185457  F        0        1
H       -4.15782952       0.17187685       0.23522361  F        0        1
H       -3.67904519       1.43860471      -0.93050172  F        0        1
H       -3.75489516       2.93840310       0.96774076  F        0        1
H       -3.63763130       1.58523997       2.12798108  F        0        1
C        1.41407095      -4.60793325      -0.53649685  F        0        1
C        2.93398136      -4.62513753      -0.36837321  F        0        1
O        3.23476669      -3.25638490      -0.03361487  F        0        1
C        2.18701564      -2.48995802      -0.32945476  F        0        1
O        1.12861986      -3.20597471      -0.70827586  F        0        1
O        2.19812010      -1.28846106      -0.25830220  F        0        1
H        1.06472529      -5.13983860      -1.41883162  F        0        1
H        0.88195039      -4.95755353       0.34910525  F        0        1
H        3.27708936      -5.26090303       0.44507500  F        0        1
H        3.46368053      -4.87467274      -1.28862869  F        0        1
41
Properties=species:S:1:pos:R:3:is_solvent:L:1:group_label:I:1:tags:I:1 Coordinates=T from=T ORCA-job=T Li1EC4_r06_charge_1_spin_1_liquid_t_traj_1_frame_0001=T E=T -1378.039429573906=T solvent_indices_0based="_JSON [1, 2, 3, 4, 5, 6, 7, 8, 9, 10]" complex_indices_0based="_JSON [0, 11, 12, 13, 14, 15, 16, 17, 18, 19, 20, 21, 22, 23, 24, 25, 26, 27, 28, 29, 30, 31, 32, 33, 34, 35, 36, 37, 38, 39, 40]" complex_indices_1based="_JSON [1, 12, 13, 14, 15, 16, 17, 18, 19, 20, 21, 22, 23, 24, 25, 26, 27, 28, 29, 30, 31, 32, 33, 34, 35, 36, 37, 38, 39, 40, 41]" pbc="F F F"
Li       1.09427600       0.19967900      -0.70384600  F        0        1
C        4.51621900       2.09509500       1.62372600  T        1        2
C        5.33333500       2.98687600       0.68893100  T        1        2
O        4.79956400       2.66151000      -0.60794900  T        1        2
C        3.62547500       2.04014400      -0.45833800  T        1        2
O        3.36429100       1.77253400       0.82553500  T        1        2
O        2.89206400       1.75460700      -1.36536000  T        1        2
H        5.02658200       1.16542800       1.88020500  T        1        2
H        4.17967700       2.60043700       2.52658500  T        1        2
H        5.17340100       4.05126100       0.86761400  T        1        2
H        6.39804400       2.76289600       0.68952300  T        1        2
C        1.93246800       1.93766200      -5.11810800  F        0        1
C        2.96181700       0.90960700      -4.65043900  F        0        1
O        2.19437800       0.08780200      -3.75065900  F        0        1
C        1.11283700       0.76516000      -3.36842000  F        0        1
O        0.92311300       1.86273800      -4.09348500  F        0        1
O        0.38249000       0.41758700      -2.47257200  F        0        1
H        2.31514800       2.95562100      -5.14734100  F        0        1
H        1.47086100       1.68037400      -6.07254500  F        0        1
H        3.34633600       0.27929300      -5.44936200  F        0        1
H        3.77791300       1.35596400      -4.08142800  F        0        1
C       -3.44705400       0.96845200       0.02605500  F        0        1
C       -3.29440000       1.97335400       1.16797100  F        0        1
O       -1.86727700       2.15711700       1.24122000  F        0        1
C       -1.26323200       1.17579200       0.57574800  F        0        1
O       -2.12994900       0.39204800      -0.06496900  F        0        1
O       -0.06933600       1.01399100       0.56185500  F        0        1
H       -4.15783000       0.17187700       0.23522400  F        0        1
H       -3.67904500       1.43860500      -0.93050200  F        0        1
H       -3.75489500       2.93840300       0.96774100  F        0        1
H       -3.63763100       1.58524000       2.12798100  F        0        1
C        1.41407100      -4.60793300      -0.53649700  F        0        1
C        2.93398100      -4.62513800      -0.36837300  F        0        1
O        3.23476700      -3.25638500      -0.03361500  F        0        1
C        2.18701600      -2.48995800      -0.32945500  F        0        1
O        1.12862000      -3.20597500      -0.70827600  F        0        1
O        2.19812000      -1.28846100      -0.25830200  F        0        1
H        1.06472500      -5.13983900      -1.41883200  F        0        1
H        0.88195000      -4.95755400       0.34910500  F        0        1
H        3.27708900      -5.26090300       0.44507500  F        0        1
H        3.46368100      -4.87467300      -1.28862900  F        0        1
41
Properties=species:S:1:pos:R:3:is_solvent:L:1:group_label:I:1:tags:I:1 Coordinates=T from=T ORCA-job=T Li1EC4_r06_charge_1_spin_1_liquid_t_traj_1_frame_0002=T E=T -1378.037169776180=T solvent_indices_0based="_JSON [1, 2, 3, 4, 5, 6, 7, 8, 9, 10]" complex_indices_0based="_JSON [0, 11, 12, 13, 14, 15, 16, 17, 18, 19, 20, 21, 22, 23, 24, 25, 26, 27, 28, 29, 30, 31, 32, 33, 34, 35, 36, 37, 38, 39, 40]" complex_indices_1based="_JSON [1, 12, 13, 14, 15, 16, 17, 18, 19, 20, 21, 22, 23, 24, 25, 26, 27, 28, 29, 30, 31, 32, 33, 34, 35, 36, 37, 38, 39, 40, 41]" pbc="F F F"
Li       0.50883980      -0.03390960      -1.09829410  F        0        1
C        5.18105389      -1.79474263      -1.36994497  T        1        2
C        5.60704880      -0.92846224      -2.55328496  T        1        2
O        4.66115094       0.15327839      -2.50956831  T        1        2
C        4.05671291       0.17704771      -1.31416164  T        1        2
O        4.43680679      -0.86893438      -0.55568001  T        1        2
O        3.28049119       1.01712350      -0.96413455  T        1        2
H        4.51404303      -2.60990031      -1.65512026  T        1        2
H        6.01644222      -2.17497265      -0.78540676  T        1        2
H        6.61023899      -0.51495718      -2.43702018  T        1        2
H        5.51566723      -1.42896276      -3.51497250  T        1        2
C        2.17760924       3.96729141      -2.64572303  F        0        1
C        3.03263123       3.22407265      -3.67759079  F        0        1
O        2.30432484       2.00052367      -3.88320014  F        0        1
C        1.41034934       1.85422399      -2.91534320  F        0        1
O        1.28190579       2.94695628      -2.16817684  F        0        1
O        0.76918134       0.84565339      -2.74074679  F        0        1
H        2.75145033       4.34072557      -1.79998259  F        0        1
H        1.57866124       4.76834985      -3.07999198  F        0        1
H        3.11270380       3.74023078      -4.63213879  F        0        1
H        4.02118328       2.96411384      -3.29935088  F        0        1
C       -3.85232799       1.89210187      -0.90869875  F        0        1
C       -4.12469815       1.49732296       0.54387422  F        0        1
O       -2.82931654       1.06496410       1.00596190  F        0        1
C       -2.03368921       0.86395502      -0.03884162  F        0        1
O       -2.59553971       1.24257467      -1.18524915  F        0        1
O       -0.92839533       0.38919511       0.04641675  F        0        1
H       -4.59400836       1.51793367      -1.61104863  F        0        1
H       -3.71579557       2.96601135      -1.04149013  F        0        1
H       -4.45265804       2.32501015       1.16894049  F        0        1
H       -4.81518276       0.65831492       0.63741964  F        0        1
C        2.98990015      -3.11366250       1.95686408  F        0        1
C        2.77852647      -1.67258085       2.42117796  F        0        1
O        1.89262648      -1.14726947       1.41533491  F        0        1
C        1.92944234      -1.93658162       0.34683908  F        0        1
O        2.60569705      -3.06019412       0.56746045  F        0        1
O        1.40565797      -1.66612813      -0.70704033  F        0        1
H        4.02422031      -3.44602042       2.01471409  F        0        1
H        2.33756041      -3.82712518       2.46186137  F        0        1
H        2.28818694      -1.59185903       3.38872134  F        0        1
H        3.69386582      -1.08016586       2.40592844  F        0        1
41
Properties=species:S:1:pos:R:3:is_solvent:L:1:group_label:I:1:tags:I:1 Coordinates=T from=T ORCA-job=T Li1EC4_r06_charge_1_spin_1_liquid_t_traj_1_frame_0002=T E=T -1378.037169776180=T solvent_indices_0based="_JSON [1, 2, 3, 4, 5, 6, 7, 8, 9, 10]" complex_indices_0based="_JSON [0, 11, 12, 13, 14, 15, 16, 17, 18, 19, 20, 21, 22, 23, 24, 25, 26, 27, 28, 29, 30, 31, 32, 33, 34, 35, 36, 37, 38, 39, 40]" complex_indices_1based="_JSON [1, 12, 13, 14, 15, 16, 17, 18, 19, 20, 21, 22, 23, 24, 25, 26, 27, 28, 29, 30, 31, 32, 33, 34, 35, 36, 37, 38, 39, 40, 41]" pbc="F F F"
Li       0.50884000      -0.03391000      -1.09829400  F        0        1
C        5.18105400      -1.79474300      -1.36994500  T        1        2
C        5.60704900      -0.92846200      -2.55328500  T        1        2
O        4.66115100       0.15327800      -2.50956800  T        1        2
C        4.05671300       0.17704800      -1.31416200  T        1        2
O        4.43680700      -0.86893400      -0.55568000  T        1        2
O        3.28049100       1.01712300      -0.96413500  T        1        2
H        4.51404300      -2.60990000      -1.65512000  T        1        2
H        6.01644200      -2.17497300      -0.78540700  T        1        2
H        6.61023900      -0.51495700      -2.43702000  T        1        2
H        5.51566700      -1.42896300      -3.51497300  T        1        2
C        2.17760900       3.96729100      -2.64572300  F        0        1
C        3.03263100       3.22407300      -3.67759100  F        0        1
O        2.30432500       2.00052400      -3.88320000  F        0        1
C        1.41034900       1.85422400      -2.91534300  F        0        1
O        1.28190600       2.94695600      -2.16817700  F        0        1
O        0.76918100       0.84565300      -2.74074700  F        0        1
H        2.75145000       4.34072600      -1.79998300  F        0        1
H        1.57866100       4.76835000      -3.07999200  F        0        1
H        3.11270400       3.74023100      -4.63213900  F        0        1
H        4.02118300       2.96411400      -3.29935100  F        0        1
C       -3.85232800       1.89210200      -0.90869900  F        0        1
C       -4.12469800       1.49732300       0.54387400  F        0        1
O       -2.82931700       1.06496400       1.00596200  F        0        1
C       -2.03368900       0.86395500      -0.03884200  F        0        1
O       -2.59554000       1.24257500      -1.18524900  F        0        1
O       -0.92839500       0.38919500       0.04641700  F        0        1
H       -4.59400800       1.51793400      -1.61104900  F        0        1
H       -3.71579600       2.96601100      -1.04149000  F        0        1
H       -4.45265800       2.32501000       1.16894000  F        0        1
H       -4.81518300       0.65831500       0.63742000  F        0        1
C        2.98990000      -3.11366300       1.95686400  F        0        1
C        2.77852600      -1.67258100       2.42117800  F        0        1
O        1.89262600      -1.14726900       1.41533500  F        0        1
C        1.92944200      -1.93658200       0.34683900  F        0        1
O        2.60569700      -3.06019400       0.56746000  F        0        1
O        1.40565800      -1.66612800      -0.70704000  F        0        1
H        4.02422000      -3.44602000       2.01471400  F        0        1
H        2.33756000      -3.82712500       2.46186100  F        0        1
H        2.28818700      -1.59185900       3.38872100  F        0        1
H        3.69386600      -1.08016600       2.40592800  F        0        1
41
Properties=species:S:1:pos:R:3:is_solvent:L:1:group_label:I:1:tags:I:1 Coordinates=T from=T ORCA-job=T Li1EC4_r06_charge_1_spin_1_liquid_t_traj_1_frame_0003=T E=T -1378.033575084382=T solvent_indices_0based="_JSON [1, 2, 3, 4, 5, 6, 7, 8, 9, 10]" complex_indices_0based="_JSON [0, 11, 12, 13, 14, 15, 16, 17, 18, 19, 20, 21, 22, 23, 24, 25, 26, 27, 28, 29, 30, 31, 32, 33, 34, 35, 36, 37, 38, 39, 40]" complex_indices_1based="_JSON [1, 12, 13, 14, 15, 16, 17, 18, 19, 20, 21, 22, 23, 24, 25, 26, 27, 28, 29, 30, 31, 32, 33, 34, 35, 36, 37, 38, 39, 40, 41]" pbc="F F F"
Li       0.53493471       0.38139885      -1.50605714  F        0        1
C        6.05459604       0.86611457       2.30557520  T        1        2
C        5.50774199       2.25289118       1.96886145  T        1        2
O        4.68106745       2.00325277       0.82093310  T        1        2
C        4.43018013       0.69025530       0.72274199  T        1        2
O        5.13280898      -0.01103816       1.63622272  T        1        2
O        3.68486651       0.19661772      -0.06877441  T        1        2
H        7.05333398       0.69205744       1.90349747  T        1        2
H        6.03504499       0.64023170       3.36947032  T        1        2
H        4.88056751       2.66452198       2.76221443  T        1        2
H        6.27700351       2.97029966       1.69082654  T        1        2
C        0.35384862       0.42099106      -6.37909591  F        0        1
C        1.87077963       0.54768306      -6.52498182  F        0        1
O        2.34042838       0.28434240      -5.18749076  F        0        1
C        1.32545644       0.39512555      -4.33602994  F        0        1
O        0.16002720       0.56555952      -4.95836840  F        0        1
O        1.45029031       0.34221986      -3.13907406  F        0        1
H       -0.20279045       1.20768913      -6.88257384  F        0        1
H       -0.02326209      -0.55769891      -6.67823130  F        0        1
H        2.31052387      -0.18798508      -7.19518094  F        0        1
H        2.19332811       1.55213722      -6.80444709  F        0        1
C       -2.39985912       2.42897127       1.63293621  F        0        1
C       -3.44333411       2.86277805       0.60463223  F        0        1
O       -2.96970344       2.23685456      -0.60373087  F        0        1
C       -1.69436175       1.89366225      -0.44579357  F        0        1
O       -1.27245111       2.08109166       0.80402617  F        0        1
O       -1.00187447       1.46739902      -1.33595446  F        0        1
H       -2.09801028       3.22080239       2.31439883  F        0        1
H       -2.69193122       1.54165437       2.19612144  F        0        1
H       -4.44644868       2.49667122       0.81372647  F        0        1
H       -3.45744311       3.94229017       0.44865374  F        0        1
C        3.43107767      -2.95340963      -0.33228021  F        0        1
C        3.12907753      -2.93594015       1.16939591  F        0        1
O        2.05865097      -1.97859496       1.27675632  F        0        1
C        1.63011497      -1.65588630       0.06441212  F        0        1
O        2.28582161      -2.29066871      -0.89817917  F        0        1
O        0.71903589      -0.88691686      -0.13858375  F        0        1
H        4.31444755      -2.37119843      -0.59170944  F        0        1
H        3.48913466      -3.95342067      -0.75819483  F        0        1
H        2.76562926      -3.89217933       1.54592462  F        0        1
H        3.96313004      -2.57986994       1.76923885  F        0        1
41
Properties=species:S:1:pos:R:3:is_solvent:L:1:group_label:I:1:tags:I:1 Coordinates=T from=T ORCA-job=T Li1EC4_r06_charge_1_spin_1_liquid_t_traj_1_frame_0003=T E=T -1378.033575084382=T solvent_indices_0based="_JSON [1, 2, 3, 4, 5, 6, 7, 8, 9, 10]" complex_indices_0based="_JSON [0, 11, 12, 13, 14, 15, 16, 17, 18, 19, 20, 21, 22, 23, 24, 25, 26, 27, 28, 29, 30, 31, 32, 33, 34, 35, 36, 37, 38, 39, 40]" complex_indices_1based="_JSON [1, 12, 13, 14, 15, 16, 17, 18, 19, 20, 21, 22, 23, 24, 25, 26, 27, 28, 29, 30, 31, 32, 33, 34, 35, 36, 37, 38, 39, 40, 41]" pbc="F F F"
Li       0.53493500       0.38139900      -1.50605700  F        0        1
C        6.05459600       0.86611500       2.30557500  T        1        2
C        5.50774200       2.25289100       1.96886100  T        1        2
O        4.68106700       2.00325300       0.82093300  T        1        2
C        4.43018000       0.69025500       0.72274200  T        1        2
O        5.13280900      -0.01103800       1.63622300  T        1        2
O        3.68486700       0.19661800      -0.06877400  T        1        2
H        7.05333400       0.69205700       1.90349700  T        1        2
H        6.03504500       0.64023200       3.36947000  T        1        2
H        4.88056800       2.66452200       2.76221400  T        1        2
H        6.27700400       2.97030000       1.69082700  T        1        2
C        0.35384900       0.42099100      -6.37909600  F        0        1
C        1.87078000       0.54768300      -6.52498200  F        0        1
O        2.34042800       0.28434200      -5.18749100  F        0        1
C        1.32545600       0.39512600      -4.33603000  F        0        1
O        0.16002700       0.56556000      -4.95836800  F        0        1
O        1.45029000       0.34222000      -3.13907400  F        0        1
H       -0.20279000       1.20768900      -6.88257400  F        0        1
H       -0.02326200      -0.55769900      -6.67823100  F        0        1
H        2.31052400      -0.18798500      -7.19518100  F        0        1
H        2.19332800       1.55213700      -6.80444700  F        0        1
C       -2.39985900       2.42897100       1.63293600  F        0        1
C       -3.44333400       2.86277800       0.60463200  F        0        1
O       -2.96970300       2.23685500      -0.60373100  F        0        1
C       -1.69436200       1.89366200      -0.44579400  F        0        1
O       -1.27245100       2.08109200       0.80402600  F        0        1
O       -1.00187400       1.46739900      -1.33595400  F        0        1
H       -2.09801000       3.22080200       2.31439900  F        0        1
H       -2.69193100       1.54165400       2.19612100  F        0        1
H       -4.44644900       2.49667100       0.81372600  F        0        1
H       -3.45744300       3.94229000       0.44865400  F        0        1
C        3.43107800      -2.95341000      -0.33228000  F        0        1
C        3.12907800      -2.93594000       1.16939600  F        0        1
O        2.05865100      -1.97859500       1.27675600  F        0        1
C        1.63011500      -1.65588600       0.06441200  F        0        1
O        2.28582200      -2.29066900      -0.89817900  F        0        1
O        0.71903600      -0.88691700      -0.13858400  F        0        1
H        4.31444800      -2.37119800      -0.59170900  F        0        1
H        3.48913500      -3.95342100      -0.75819500  F        0        1
H        2.76562900      -3.89217900       1.54592500  F        0        1
H        3.96313000      -2.57987000       1.76923900  F        0        1
41
Properties=species:S:1:pos:R:3:is_solvent:L:1:group_label:I:1:tags:I:1 Coordinates=T from=T ORCA-job=T Li1EC4_r06_charge_1_spin_1_liquid_t_traj_1_frame_0004=T E=T -1378.024365078820=T solvent_indices_0based="_JSON [1, 2, 3, 4, 5, 6, 7, 8, 9, 10]" complex_indices_0based="_JSON [0, 11, 12, 13, 14, 15, 16, 17, 18, 19, 20, 21, 22, 23, 24, 25, 26, 27, 28, 29, 30, 31, 32, 33, 34, 35, 36, 37, 38, 39, 40]" complex_indices_1based="_JSON [1, 12, 13, 14, 15, 16, 17, 18, 19, 20, 21, 22, 23, 24, 25, 26, 27, 28, 29, 30, 31, 32, 33, 34, 35, 36, 37, 38, 39, 40, 41]" pbc="F F F"
Li       0.12377226       0.56869444      -0.77467582  F        0        1
C        6.30634716       0.83426138       1.38832829  T        1        2
C        5.33403478       2.02151517       1.45175551  T        1        2