41
Properties=species:S:1:pos:R:3:is_solvent:L:1:group_label:I:1:tags:I:1 Coordinates=T from=T ORCA-job=T Li1EC4_r04_charge_1_spin_1_liquid_t_traj_1_frame_0000=T E=T -1378.044519497234=T solvent_indices_0based="_JSON [1, 2, 3, 4, 5, 6, 7, 8, 9, 10]" complex_indices_0based="_JSON [0, 11, 12, 13, 14, 15, 16, 17, 18, 19, 20, 21, 22, 23, 24, 25, 26, 27, 28, 29, 30, 31, 32, 33, 34, 35, 36, 37, 38, 39, 40]" complex_indices_1based="_JSON [1, 12, 13, 14, 15, 16, 17, 18, 19, 20, 21, 22, 23, 24, 25, 26, 27, 28, 29, 30, 31, 32, 33, 34, 35, 36, 37, 38, 39, 40, 41]" pbc="F F F"
Li       0.98992617       0.10833723       0.37891989  F        0        1
C        4.48927163       1.74946775      -2.08109898  T        1        2
C        5.08504096       2.70001499      -1.04253754  T        1        2
O        4.23112636       2.49845598       0.09923700  T        1        2
C        3.11728707       1.87553057      -0.28671464  T        1        2
O        3.16477148       1.51402138      -1.57089471  T        1        2
O        2.17841771       1.67129166       0.43745630  T        1        2
H        4.40393832       2.18495277      -3.07446490  T        1        2
H        5.01043503       0.79230202      -2.13166045  T        1        2
H        6.10482880       2.45170756      -0.75609442  T        1        2
H        5.02115127       3.74878962      -1.33604284  T        1        2
C       -2.92461606       2.40478681      -0.66253669  F        0        1
C       -3.50941993       1.37545071      -1.63091127  F        0        1
O       -2.37842398       0.53533623      -1.92690845  F        0        1
C       -1.41953575       0.75225524      -1.02695682  F        0        1
O       -1.71309993       1.76950313      -0.21489418  F        0        1
O       -0.40680500       0.10577608      -0.96056801  F        0        1
H       -2.65834655       3.34482322      -1.14782964  F        0        1
H       -3.55357695       2.59574571       0.20446445  F        0        1
H       -4.28497057       0.75629914      -1.17798616  F        0        1
H       -3.87092740       1.80664339      -2.56210588  F        0        1
C        0.80040823       0.44669735       5.45292616  F        0        1
C        2.19406087       0.53000018       4.83076595  F        0        1
O        1.96085026       0.10393616       3.47614772  F        0        1
C        0.65464991       0.17511915       3.21153458  F        0        1
O       -0.06291040       0.45203102       4.29963514  F        0        1
O        0.17807413       0.00519837       2.11980020  F        0        1
H        0.63118551      -0.48141307       6.00081849  F        0        1
H        0.54581267       1.30153282       6.07579165  F        0        1
H        2.59051696       1.54610442       4.80549170  F        0        1
H        2.91767758      -0.14367140       5.28489080  F        0        1
C        0.90928144      -4.37591394      -0.97924397  F        0        1
C        2.19998236      -4.31986476      -1.79832136  F        0        1
O        2.84429783      -3.13184721      -1.30103320  F        0        1
C        1.96135747      -2.40357640      -0.61653709  F        0        1
O        0.79712156      -3.03571396      -0.46662600  F        0        1
O        2.19547319      -1.30576373      -0.18333495  F        0        1
H        0.02396360      -4.59205330      -1.57357554  F        0        1
H        0.97012099      -5.06166997      -0.13307659  F        0        1
H        2.86224924      -5.16640405      -1.62942235  F        0        1
H        2.02201916      -4.18904709      -2.86650635  F        0        1
41
Properties=species:S:1:pos:R:3:is_solvent:L:1:group_label:I:1:tags:I:1 Coordinates=T from=T ORCA-job=T Li1EC4_r04_charge_1_spin_1_liquid_t_traj_1_frame_0000=T E=T -1378.044519497234=T solvent_indices_0based="_JSON [1, 2, 3, 4, 5, 6, 7, 8, 9, 10]" complex_indices_0based="_JSON [0, 11, 12, 13, 14, 15, 16, 17, 18, 19, 20, 21, 22, 23, 24, 25, 26, 27, 28, 29, 30, 31, 32, 33, 34, 35, 36, 37, 38, 39, 40]" complex_indices_1based="_JSON [1, 12, 13, 14, 15, 16, 17, 18, 19, 20, 21, 22, 23, 24, 25, 26, 27, 28, 29, 30, 31, 32, 33, 34, 35, 36, 37, 38, 39, 40, 41]" pbc="F F F"
Li       0.98992600       0.10833700       0.37892000  F        0        1
C        4.48927200       1.74946800      -2.08109900  T        1        2
C        5.08504100       2.70001500      -1.04253800  T        1        2
O        4.23112600       2.49845600       0.09923700  T        1        2
C        3.11728700       1.87553100      -0.28671500  T        1        2
O        3.16477100       1.51402100      -1.57089500  T        1        2
O        2.17841800       1.67129200       0.43745600  T        1        2
H        4.40393800       2.18495300      -3.07446500  T        1        2
H        5.01043500       0.79230200      -2.13166000  T        1        2
H        6.10482900       2.45170800      -0.75609400  T        1        2
H        5.02115100       3.74879000      -1.33604300  T        1        2
C       -2.92461600       2.40478700      -0.66253700  F        0        1
C       -3.50942000       1.37545100      -1.63091100  F        0        1
O       -2.37842400       0.53533600      -1.92690800  F        0        1
C       -1.41953600       0.75225500      -1.02695700  F        0        1
O       -1.71310000       1.76950300      -0.21489400  F        0        1
O       -0.40680500       0.10577600      -0.96056800  F        0        1
H       -2.65834700       3.34482300      -1.14783000  F        0        1
H       -3.55357700       2.59574600       0.20446400  F        0        1
H       -4.28497100       0.75629900      -1.17798600  F        0        1
H       -3.87092700       1.80664300      -2.56210600  F        0        1
C        0.80040800       0.44669700       5.45292600  F        0        1
C        2.19406100       0.53000000       4.83076600  F        0        1
O        1.96085000       0.10393600       3.47614800  F        0        1
C        0.65465000       0.17511900       3.21153500  F        0        1
O       -0.06291000       0.45203100       4.29963500  F        0        1
O        0.17807400       0.00519800       2.11980000  F        0        1
H        0.63118600      -0.48141300       6.00081800  F        0        1
H        0.54581300       1.30153300       6.07579200  F        0        1
H        2.59051700       1.54610400       4.80549200  F        0        1
H        2.91767800      -0.14367100       5.28489100  F        0        1
C        0.90928100      -4.37591400      -0.97924400  F        0        1
C        2.19998200      -4.31986500      -1.79832100  F        0        1
O        2.84429800      -3.13184700      -1.30103300  F        0        1
C        1.96135700      -2.40357600      -0.61653700  F        0        1
O        0.79712200      -3.03571400      -0.46662600  F        0        1
O        2.19547300      -1.30576400      -0.18333500  F        0        1
H        0.02396400      -4.59205300      -1.57357600  F        0        1
H        0.97012100      -5.06167000      -0.13307700  F        0        1
H        2.86224900      -5.16640400      -1.62942200  F        0        1
H        2.02201900      -4.18904700      -2.86650600  F        0        1
41
Properties=species:S:1:pos:R:3:is_solvent:L:1:group_label:I:1:tags:I:1 Coordinates=T from=T ORCA-job=T Li1EC4_r04_charge_1_spin_1_liquid_t_traj_1_frame_0001=T E=T -1378.039381382668=T solvent_indices_0based="_JSON [1, 2, 3, 4, 5, 6, 7, 8, 9, 10]" complex_indices_0based="_JSON [0, 11, 12, 13, 14, 15, 16, 17, 18, 19, 20, 21, 22, 23, 24, 25, 26, 27, 28, 29, 30, 31, 32, 33, 34, 35, 36, 37, 38, 39, 40]" complex_indices_1based="_JSON [1, 12, 13, 14, 15, 16, 17, 18, 19, 20, 21, 22, 23, 24, 25, 26, 27, 28, 29, 30, 31, 32, 33, 34, 35, 36, 37, 38, 39, 40, 41]" pbc="F F F"
Li       0.20220100      -0.45135605       0.64448780  F        0        1
C        4.87629644       0.06259131      -0.77928528  T        1        2
C        5.20218182       1.27028074       0.09534028  T        1        2
O        3.91109188       1.64801017       0.60271464  T        1        2
C        2.95087974       1.08821401      -0.14999820  T        1        2
O        3.47770332       0.24453054      -1.05787029  T        1        2
O        1.78313905       1.31392435      -0.03194340  T        1        2
H        5.41903919       0.05118487      -1.72267093  T        1        2
H        4.99985004      -0.88764227      -0.25628222  T        1        2
H        5.85040200       1.03650714       0.93749857  T        1        2
H        5.60887584       2.10925767      -0.47173403  T        1        2
C       -3.59580389       2.17837545      -0.41141339  F        0        1
C       -4.34374019       1.07861845      -1.16616221  F        0        1
O       -3.32601536       0.07708902      -1.36095615  F        0        1
C       -2.30309847       0.32638938      -0.54774006  F        0        1
O       -2.43804307       1.48583549       0.09407346  F        0        1
O       -1.36330791      -0.41553623      -0.41276233  F        0        1
H       -3.25267178       2.98544917      -1.06003870  F        0        1
H       -4.14904965       2.58377434       0.43299376  F        0        1
H       -5.15089251       0.63317336      -0.58325087  F        0        1
H       -4.71157784       1.38812320      -2.14201197  F        0        1
C        1.65896022       1.98234193       4.83844593  F        0        1
C        2.79175469       1.52238236       3.92251743  F        0        1
O        2.13358199       0.57412213       3.06173638  F        0        1
C        0.81486996       0.76966672       3.12767618  F        0        1
O        0.48301171       1.63458300       4.08274918  F        0        1
O        0.01430114       0.22558640       2.41169861  F        0        1
H        1.62765002       1.44109027       5.78517498  F        0        1
H        1.64641398       3.05524234       5.01734756  F        0        1
H        3.19062696       2.32319029       3.29830608  F        0        1
H        3.59694627       1.01100814       4.44589897  F        0        1
C        1.69525643      -2.99162226      -2.90669632  F        0        1
C        3.11605149      -3.21589910      -2.39122433  F        0        1
O        2.99796830      -2.91364836      -0.98743087  F        0        1
C        1.86381090      -2.24179285      -0.78018826  F        0        1
O        1.11166921      -2.17479610      -1.87503197  F        0        1
O        1.56241111      -1.75547716       0.27994455  F        0        1
H        1.64978181      -2.44383932      -3.84536423  F        0        1
H        1.11726194      -3.91382524      -2.97923459  F        0        1
H        3.46472901      -4.24115526      -2.49451215  F        0        1
H        3.83878446      -2.52514438      -2.82869336  F        0        1
41
Properties=species:S:1:pos:R:3:is_solvent:L:1:group_label:I:1:tags:I:1 Coordinates=T from=T ORCA-job=T Li1EC4_r04_charge_1_spin_1_liquid_t_traj_1_frame_0001=T E=T -1378.039381382668=T solvent_indices_0based="_JSON [1, 2, 3, 4, 5, 6, 7, 8, 9, 10]" complex_indices_0based="_JSON [0, 11, 12, 13, 14, 15, 16, 17, 18, 19, 20, 21, 22, 23, 24, 25, 26, 27, 28, 29, 30, 31, 32, 33, 34, 35, 36, 37, 38, 39, 40]" complex_indices_1based="_JSON [1, 12, 13, 14, 15, 16, 17, 18, 19, 20, 21, 22, 23, 24, 25, 26, 27, 28, 29, 30, 31, 32, 33, 34, 35, 36, 37, 38, 39, 40, 41]" pbc="F F F"
Li       0.20220100      -0.45135600       0.64448800  F        0        1
C        4.87629600       0.06259100      -0.77928500  T        1        2
C        5.20218200       1.27028100       0.09534000  T        1        2
O        3.91109200       1.64801000       0.60271500  T        1        2
C        2.95088000       1.08821400      -0.14999800  T        1        2
O        3.47770300       0.24453100      -1.05787000  T        1        2
O        1.78313900       1.31392400      -0.03194300  T        1        2
H        5.41903900       0.05118500      -1.72267100  T        1        2
H        4.99985000      -0.88764200      -0.25628200  T        1        2
H        5.85040200       1.03650700       0.93749900  T        1        2
H        5.60887600       2.10925800      -0.47173400  T        1        2
C       -3.59580400       2.17837500      -0.41141300  F        0        1
C       -4.34374000       1.07861800      -1.16616200  F        0        1
O       -3.32601500       0.07708900      -1.36095600  F        0        1
C       -2.30309800       0.32638900      -0.54774000  F        0        1
O       -2.43804300       1.48583500       0.09407300  F        0        1
O       -1.36330800      -0.41553600      -0.41276200  F        0        1
H       -3.25267200       2.98544900      -1.06003900  F        0        1
H       -4.14905000       2.58377400       0.43299400  F        0        1
H       -5.15089300       0.63317300      -0.58325100  F        0        1
H       -4.71157800       1.38812300      -2.14201200  F        0        1
C        1.65896000       1.98234200       4.83844600  F        0        1
C        2.79175500       1.52238200       3.92251700  F        0        1
O        2.13358200       0.57412200       3.06173600  F        0        1
C        0.81487000       0.76966700       3.12767600  F        0        1
O        0.48301200       1.63458300       4.08274900  F        0        1
O        0.01430100       0.22558600       2.41169900  F        0        1
H        1.62765000       1.44109000       5.78517500  F        0        1
H        1.64641400       3.05524200       5.01734800  F        0        1
H        3.19062700       2.32319000       3.29830600  F        0        1
H        3.59694600       1.01100800       4.44589900  F        0        1
C        1.69525600      -2.99162200      -2.90669600  F        0        1
C        3.11605100      -3.21589900      -2.39122400  F        0        1
O        2.99796800      -2.91364800      -0.98743100  F        0        1
C        1.86381100      -2.24179300      -0.78018800  F        0        1
O        1.11166900      -2.17479600      -1.87503200  F        0        1
O        1.56241100      -1.75547700       0.27994500  F        0        1
H        1.64978200      -2.44383900      -3.84536400  F        0        1
H        1.11726200      -3.91382500      -2.97923500  F        0        1
H        3.46472900      -4.24115500      -2.49451200  F        0        1
H        3.83878400      -2.52514400      -2.82869300  F        0        1
41
Properties=species:S:1:pos:R:3:is_solvent:L:1:group_label:I:1:tags:I:1 Coordinates=T from=T ORCA-job=T Li1EC4_r04_charge_1_spin_1_liquid_t_traj_1_frame_0002=T E=T -1378.036556638320=T solvent_indices_0based="_JSON [1, 2, 3, 4, 5, 6, 7, 8, 9, 10]" complex_indices_0based="_JSON [0, 11, 12, 13, 14, 15, 16, 17, 18, 19, 20, 21, 22, 23, 24, 25, 26, 27, 28, 29, 30, 31, 32, 33, 34, 35, 36, 37, 38, 39, 40]" complex_indices_1based="_JSON [1, 12, 13, 14, 15, 16, 17, 18, 19, 20, 21, 22, 23, 24, 25, 26, 27, 28, 29, 30, 31, 32, 33, 34, 35, 36, 37, 38, 39, 40, 41]" pbc="F F F"
Li       0.26841198      -0.31272092       0.51636659  F        0        1
C        5.29129883      -0.88059418      -0.25146096  T        1        2
C        5.76873541      -0.15926000       1.00528093  T        1        2
O        4.61237807       0.60608375       1.38685556  T        1        2
C        3.74998021       0.67334515       0.35867402  T        1        2
O        4.17789449      -0.07597959      -0.67647009  T        1        2
O        2.74171224       1.31402209       0.36142637  T        1        2
H        6.03239191      -0.89520713      -1.04843655  T        1        2
H        4.92763910      -1.88895832      -0.04956065  T        1        2
H        6.02311417      -0.83213342       1.82176783  T        1        2
H        6.59200705       0.53093496       0.81413691  T        1        2
C       -4.07888098       1.55213650      -0.06420609  F        0        1
C       -4.69551113       0.28444235      -0.65745061  F        0        1
O       -3.53776451      -0.50821233      -0.98895595  F        0        1
C       -2.47307150      -0.01270987      -0.36563355  F        0        1
O       -2.73672804       1.13458386       0.25488174  F        0        1
O       -1.39164072      -0.54732516      -0.37031522  F        0        1
H       -4.01769286       2.37374531      -0.77890989  F        0        1
H       -4.56083654       1.88627265       0.85200901  F        0        1
H       -5.29551648      -0.27660967       0.05996326  F        0        1
H       -5.26402971       0.45827556      -1.56843882  F        0        1
C        1.86197565       3.25876071       3.69050389  F        0        1
C        2.80359078       2.06525365       3.86158531  F        0        1
O        2.01651604       0.96327177       3.37041295  F        0        1
C        0.98974150       1.43790988       2.67406110  F        0        1
O        0.87073201       2.75624690       2.77517226  F        0        1
O        0.22916708       0.74928692       2.03989813  F        0        1
H        1.35701960       3.54570956       4.61366970  F        0        1
H        2.33708927       4.12569016       3.23618684  F        0        1
H        3.69768138       2.13718840       3.24422460  F        0        1
H        3.06714440       1.86329811       4.89782701  F        0        1
C        1.81669190      -1.48018882      -3.51462509  F        0        1
C        2.99388172      -2.36556005      -3.10556238  F        0        1
O        2.74971286      -2.59674239      -1.70444066  F        0        1
C        1.86257916      -1.70707784      -1.26529526  F        0        1
O        1.34397239      -0.97969878      -2.24993154  F        0        1
O        1.56158609      -1.57739982      -0.10465175  F        0        1
H        2.10255855      -0.63292661      -4.13397419  F        0        1
H        1.00562564      -2.03724791      -3.98511096  F        0        1
H        3.01742079      -3.32692775      -3.61407637  F        0        1
H        3.95535944      -1.86053401      -3.20517791  F        0        1
41
Properties=species:S:1:pos:R:3:is_solvent:L:1:group_label:I:1:tags:I:1 Coordinates=T from=T ORCA-job=T Li1EC4_r04_charge_1_spin_1_liquid_t_traj_1_frame_0002=T E=T -1378.036556638320=T solvent_indices_0based="_JSON [1, 2, 3, 4, 5, 6, 7, 8, 9, 10]" complex_indices_0based="_JSON [0, 11, 12, 13, 14, 15, 16, 17, 18, 19, 20, 21, 22, 23, 24, 25, 26, 27, 28, 29, 30, 31, 32, 33, 34, 35, 36, 37, 38, 39, 40]" complex_indices_1based="_JSON [1, 12, 13, 14, 15, 16, 17, 18, 19, 20, 21, 22, 23, 24, 25, 26, 27, 28, 29, 30, 31, 32, 33, 34, 35, 36, 37, 38, 39, 40, 41]" pbc="F F F"
Li       0.26841200      -0.31272100       0.51636700  F        0        1
C        5.29129900      -0.88059400      -0.25146100  T        1        2
C        5.76873500      -0.15926000       1.00528100  T        1        2
O        4.61237800       0.60608400       1.38685600  T        1        2
C        3.74998000       0.67334500       0.35867400  T        1        2
O        4.17789400      -0.07598000      -0.67647000  T        1        2
O        2.74171200       1.31402200       0.36142600  T        1        2
H        6.03239200      -0.89520700      -1.04843700  T        1        2
H        4.92763900      -1.88895800      -0.04956100  T        1        2
H        6.02311400      -0.83213300       1.82176800  T        1        2
H        6.59200700       0.53093500       0.81413700  T        1        2
C       -4.07888100       1.55213600      -0.06420600  F        0        1
C       -4.69551100       0.28444200      -0.65745100  F        0        1
O       -3.53776500      -0.50821200      -0.98895600  F        0        1
C       -2.47307100      -0.01271000      -0.36563400  F        0        1
O       -2.73672800       1.13458400       0.25488200  F        0        1
O       -1.39164100      -0.54732500      -0.37031500  F        0        1
H       -4.01769300       2.37374500      -0.77891000  F        0        1
H       -4.56083700       1.88627300       0.85200900  F        0        1
H       -5.29551600      -0.27661000       0.05996300  F        0        1
H       -5.26403000       0.45827600      -1.56843900  F        0        1
C        1.86197600       3.25876100       3.69050400  F        0        1
C        2.80359100       2.06525400       3.86158500  F        0        1
O        2.01651600       0.96327200       3.37041300  F        0        1
C        0.98974200       1.43791000       2.67406100  F        0        1
O        0.87073200       2.75624700       2.77517200  F        0        1
O        0.22916700       0.74928700       2.03989800  F        0        1
H        1.35702000       3.54571000       4.61367000  F        0        1
H        2.33708900       4.12569000       3.23618700  F        0        1
H        3.69768100       2.13718800       3.24422500  F        0        1
H        3.06714400       1.86329800       4.89782700  F        0        1
C        1.81669200      -1.48018900      -3.51462500  F        0        1
C        2.99388200      -2.36556000      -3.10556200  F        0        1
O        2.74971300      -2.59674200      -1.70444100  F        0        1
C        1.86257900      -1.70707800      -1.26529500  F        0        1
O        1.34397200      -0.97969900      -2.24993200  F        0        1
O        1.56158600      -1.57740000      -0.10465200  F        0        1
H        2.10255900      -0.63292700      -4.13397400  F        0        1
H        1.00562600      -2.03724800      -3.98511100  F        0        1
H        3.01742100      -3.32692800      -3.61407600  F        0        1
H        3.95535900      -1.86053400      -3.20517800  F        0        1
41
Properties=species:S:1:pos:R:3:is_solvent:L:1:group_label:I:1:tags:I:1 Coordinates=T from=T ORCA-job=T Li1EC4_r04_charge_1_spin_1_liquid_t_traj_1_frame_0003=T E=T -1378.036798317248=T solvent_indices_0based="_JSON [1, 2, 3, 4, 5, 6, 7, 8, 9, 10]" complex_indices_0based="_JSON [0, 11, 12, 13, 14, 15, 16, 17, 18, 19, 20, 21, 22, 23, 24, 25, 26, 27, 28, 29, 30, 31, 32, 33, 34, 35, 36, 37, 38, 39, 40]" complex_indices_1based="_JSON [1, 12, 13, 14, 15, 16, 17, 18, 19, 20, 21, 22, 23, 24, 25, 26, 27, 28, 29, 30, 31, 32, 33, 34, 35, 36, 37, 38, 39, 40, 41]" pbc="F F F"
Li       0.24676543      -0.27875681       0.48884919  F        0        1
C        5.25233563      -1.37528079      -0.03686296  T        1        2
C        5.59979588      -0.95994566       1.39033827  T        1        2
O        4.61802552       0.05352795       1.66930413  T        1        2
C        4.07475801       0.48476329       0.51954784  T        1        2
O        4.53027725      -0.23121883      -0.52760814  T        1        2
O        3.28825297       1.37897461       0.43257157  T        1        2
H        6.12178234      -1.53507653      -0.67122038  T        1        2
H        4.58955912      -2.24140898      -0.07583149  T        1        2
H        5.48601185      -1.76024850       2.11852940  T        1        2
H        6.59135209      -0.51157194       1.47259611  T        1        2
C       -4.34694189       1.01280011      -0.46370994  F        0        1
C       -4.89604261      -0.32105105       0.04742953  F        0        1
O       -3.72275250      -1.15720719       0.08649087  F        0        1
C       -2.63654385      -0.39846286      -0.00692000  F        0        1
O       -2.92733361       0.87767185      -0.25066810  F        0        1
O       -1.51433450      -0.82277142       0.11115242  F        0        1
H       -4.51717350       1.16586339      -1.52993529  F        0        1
H       -4.69808517       1.87441098       0.09990305  F        0        1
H       -5.29947998      -0.25823447       1.05865376  F        0        1
H       -5.62206210      -0.78110709      -0.61929467  F        0        1
C        2.32717568       3.60689014       3.02107930  F        0        1
C        2.97115875       2.35803903       3.63286843  F        0        1
O        2.06363070       1.30669317       3.25450279  F        0        1
C        1.23588613       1.75747219       2.32020774  F        0        1
O        1.33677852       3.06312076       2.12944565  F        0        1
O        0.44959887       1.05463837       1.73006394  F        0        1
H        1.81619322       4.23149867       3.75447392  F        0        1
H        3.02028863       4.20689361       2.43456741  F        0        1
H        3.94458237       2.12692125       3.20349132  F        0        1
H        3.02764923       2.38487134       4.71922558  F        0        1
C        2.48193793      -0.04504014      -3.47283970  F        0        1
C        3.01174610      -1.47820962      -3.53083653  F        0        1
O        2.77474824      -1.96351735      -2.19325028  F        0        1
C        1.96425885      -1.12407545      -1.55910767  F        0        1
O        1.64997397      -0.06318476      -2.29559838  F        0        1
O        1.55305062      -1.30831361      -0.43858581  F        0        1
H        3.26862032       0.69269147      -3.31441901  F        0        1
H        1.86537803       0.23078915      -4.32545349  F        0        1
H        2.46440944      -2.11992646      -4.22200189  F        0        1
H        4.07934127      -1.53784226      -3.73281777  F        0        1
41
Properties=species:S:1:pos:R:3:is_solvent:L:1:group_label:I:1:tags:I:1 Coordinates=T from=T ORCA-job=T Li1EC4_r04_charge_1_spin_1_liquid_t_traj_1_frame_0003=T E=T -1378.036798317248=T solvent_indices_0based="_JSON [1, 2, 3, 4, 5, 6, 7, 8, 9, 10]" complex_indices_0based="_JSON [0, 11, 12, 13, 14, 15, 16, 17, 18, 19, 20, 21, 22, 23, 24, 25, 26, 27, 28, 29, 30, 31, 32, 33, 34, 35, 36, 37, 38, 39, 40]" complex_indices_1based="_JSON [1, 12, 13, 14, 15, 16, 17, 18, 19, 20, 21, 22, 23, 24, 25, 26, 27, 28, 29, 30, 31, 32, 33, 34, 35, 36, 37, 38, 39, 40, 41]" pbc="F F F"
Li       0.24676500      -0.27875700       0.48884900  F        0        1
C        5.25233600      -1.37528100      -0.03686300  T        1        2
C        5.59979600      -0.95994600       1.39033800  T        1        2
O        4.61802600       0.05352800       1.66930400  T        1        2
C        4.07475800       0.48476300       0.51954800  T        1        2
O        4.53027700      -0.23121900      -0.52760800  T        1        2
O        3.28825300       1.37897500       0.43257200  T        1        2
H        6.12178200      -1.53507700      -0.67122000  T        1        2
H        4.58955900      -2.24140900      -0.07583100  T        1        2
H        5.48601200      -1.76024800       2.11852900  T        1        2
H        6.59135200      -0.51157200       1.47259600  T        1        2
C       -4.34694200       1.01280000      -0.46371000  F        0        1
C       -4.89604300      -0.32105100       0.04743000  F        0        1
O       -3.72275300      -1.15720700       0.08649100  F        0        1
C       -2.63654400      -0.39846300      -0.00692000  F        0        1
O       -2.92733400       0.87767200      -0.25066800  F        0        1
O       -1.51433400      -0.82277100       0.11115200  F        0        1
H       -4.51717300       1.16586300      -1.52993500  F        0        1
H       -4.69808500       1.87441100       0.09990300  F        0        1
H       -5.29948000      -0.25823400       1.05865400  F        0        1
H       -5.62206200      -0.78110700      -0.61929500  F        0        1
C        2.32717600       3.60689000       3.02107900  F        0        1
C        2.97115900       2.35803900       3.63286800  F        0        1
O        2.06363100       1.30669300       3.25450300  F        0        1
C        1.23588600       1.75747200       2.32020800  F        0        1
O        1.33677900       3.06312100       2.12944600  F        0        1
O        0.44959900       1.05463800       1.73006400  F        0        1
H        1.81619300       4.23149900       3.75447400  F        0        1
H        3.02028900       4.20689400       2.43456700  F        0        1
H        3.94458200       2.12692100       3.20349100  F        0        1
H        3.02764900       2.38487100       4.71922600  F        0        1
C        2.48193800      -0.04504000      -3.47284000  F        0        1
C        3.01174600      -1.47821000      -3.53083700  F        0        1
O        2.77474800      -1.96351700      -2.19325000  F        0        1
C        1.96425900      -1.12407500      -1.55910800  F        0        1
O        1.64997400      -0.06318500      -2.29559800  F        0        1
O        1.55305100      -1.30831400      -0.43858600  F        0        1
H        3.26862000       0.69269100      -3.31441900  F        0        1
H        1.86537800       0.23078900      -4.32545300  F        0        1
H        2.46440900      -2.11992600      -4.22200200  F        0        1
H        4.07934100      -1.53784200      -3.73281800  F        0        1
41
Properties=species:S:1:pos:R:3:is_solvent:L:1:group_label:I:1:tags:I:1 Coordinates=T from=T ORCA-job=T Li1EC4_r04_charge_1_spin_1_liquid_t_traj_1_frame_0004=T E=T -1378.038656429141=T solvent_indices_0based="_JSON [1, 2, 3, 4, 5, 6, 7, 8, 9, 10]" complex_indices_0based="_JSON [0, 11, 12, 13, 14, 15, 16, 17, 18, 19, 20, 21, 22, 23, 24, 25, 26, 27, 28, 29, 30, 31, 32, 33, 34, 35, 36, 37, 38, 39, 40]" complex_indices_1based="_JSON [1, 12, 13, 14, 15, 16, 17, 18, 19, 20, 21, 22, 23, 24, 25, 26, 27, 28, 29, 30, 31, 32, 33, 34, 35, 36, 37, 38, 39, 40, 41]" pbc="F F F"
Li      -0.38209306       0.22642681      -0.28108699  F        0        1
C        6.61499788      -0.93854078       0.08342631  T        1        2
C        6.64048333      -0.11029055       1.36506432  T        1        2