41
Properties=species:S:1:pos:R:3:is_solvent:L:1:group_label:I:1:tags:I:1 Coordinates=T from=T ORCA-job=T Li1EC4_r04_charge_1_spin_1_liquid_t_traj_2_frame_0000=T E=T -1378.044529481444=T solvent_indices_0based="_JSON [11, 12, 13, 14, 15, 16, 17, 18, 19, 20]" complex_indices_0based="_JSON [0, 1, 2, 3, 4, 5, 6, 7, 8, 9, 10, 21, 22, 23, 24, 25, 26, 27, 28, 29, 30, 31, 32, 33, 34, 35, 36, 37, 38, 39, 40]" complex_indices_1based="_JSON [1, 2, 3, 4, 5, 6, 7, 8, 9, 10, 11, 22, 23, 24, 25, 26, 27, 28, 29, 30, 31, 32, 33, 34, 35, 36, 37, 38, 39, 40, 41]" pbc="F F F"
Li       0.99903740       0.13254893       0.35449562  F        0        1
C        4.50897124       1.78015041      -2.09734245  F        0        1
C        5.08819585       2.73355530      -1.05271186  F        0        1
O        4.23124558       2.51601733       0.08441701  F        0        1
C        3.12453339       1.88711359      -0.31183787  F        0        1
O        3.18246698       1.53300255      -1.59758356  F        0        1
O        2.18279409       1.67155441       0.40533828  F        0        1
H        4.42770541       2.21654833      -3.09061750  F        0        1
H        5.03837977       0.82736754      -2.14510821  F        0        1
H        6.10956194       2.49750892      -0.76180410  F        0        1
H        5.01147156       3.78263423      -1.34209800  F        0        1
C       -2.93180937       2.40517806      -0.66984931  T        1        2
C       -3.51154377       1.36837236      -1.63337819  T        1        2
O       -2.37589805       0.53378589      -1.92754731  T        1        2
C       -1.41592568       0.76161267      -1.03159271  T        1        2
O       -1.71401026       1.78088638      -0.22367446  T        1        2
O       -0.39870706       0.12228037      -0.96487642  T        1        2
H       -2.67429558       3.34579071      -1.15864906  T        1        2
H       -3.55976756       2.59367277       0.19841249  T        1        2
H       -4.28268796       0.74625456      -1.17710653  T        1        2
H       -3.87662847       1.79362575      -2.56589542  T        1        2
C        0.80021721       0.40804054       5.43888638  F        0        1
C        2.19443821       0.50951319       4.82079503  F        0        1
O        1.96659589       0.10404222       3.45910273  F        0        1
C        0.66015867       0.16905225       3.19295970  F        0        1
O       -0.06112712       0.42546618       4.28404162  F        0        1
O        0.18646768       0.01087376       2.09844451  F        0        1
H        0.63567697      -0.52938034       5.97214479  F        0        1
H        0.53860981       1.25172255       6.07389001  F        0        1
H        2.58496830       1.52818540       4.81293868  F        0        1
H        2.92122580      -0.16709252       5.26540631  F        0        1
C        0.90021768      -4.37713912      -0.91999673  F        0        1
C        2.18111560      -4.34021709      -1.75480165  F        0        1
O        2.83394475      -3.14491820      -1.28710231  F        0        1
C        1.95899190      -2.39946330      -0.61013364  F        0        1
O        0.79432104      -3.02537608      -0.43706540  F        0        1
O        2.20002068      -1.29354045      -0.20255034  F        0        1
H        0.00772823      -4.60657017      -1.49831983  F        0        1
H        0.97157631      -5.04323142      -0.05902667  F        0        1
H        2.84306370      -5.18526227      -1.57740611  F        0        1
H        1.99136449      -4.22899445      -2.82320050  F        0        1
41
Properties=species:S:1:pos:R:3:is_solvent:L:1:group_label:I:1:tags:I:1 Coordinates=T from=T ORCA-job=T Li1EC4_r04_charge_1_spin_1_liquid_t_traj_2_frame_0000=T E=T -1378.044529481444=T solvent_indices_0based="_JSON [11, 12, 13, 14, 15, 16, 17, 18, 19, 20]" complex_indices_0based="_JSON [0, 1, 2, 3, 4, 5, 6, 7, 8, 9, 10, 21, 22, 23, 24, 25, 26, 27, 28, 29, 30, 31, 32, 33, 34, 35, 36, 37, 38, 39, 40]" complex_indices_1based="_JSON [1, 2, 3, 4, 5, 6, 7, 8, 9, 10, 11, 22, 23, 24, 25, 26, 27, 28, 29, 30, 31, 32, 33, 34, 35, 36, 37, 38, 39, 40, 41]" pbc="F F F"
Li       0.99903700       0.13254900       0.35449600  F        0        1
C        4.50897100       1.78015000      -2.09734200  F        0        1
C        5.08819600       2.73355500      -1.05271200  F        0        1
O        4.23124600       2.51601700       0.08441700  F        0        1
C        3.12453300       1.88711400      -0.31183800  F        0        1
O        3.18246700       1.53300300      -1.59758400  F        0        1
O        2.18279400       1.67155400       0.40533800  F        0        1
H        4.42770500       2.21654800      -3.09061800  F        0        1
H        5.03838000       0.82736800      -2.14510800  F        0        1
H        6.10956200       2.49750900      -0.76180400  F        0        1
H        5.01147200       3.78263400      -1.34209800  F        0        1
C       -2.93180900       2.40517800      -0.66984900  T        1        2
C       -3.51154400       1.36837200      -1.63337800  T        1        2
O       -2.37589800       0.53378600      -1.92754700  T        1        2
C       -1.41592600       0.76161300      -1.03159300  T        1        2
O       -1.71401000       1.78088600      -0.22367400  T        1        2
O       -0.39870700       0.12228000      -0.96487600  T        1        2
H       -2.67429600       3.34579100      -1.15864900  T        1        2
H       -3.55976800       2.59367300       0.19841200  T        1        2
H       -4.28268800       0.74625500      -1.17710700  T        1        2
H       -3.87662800       1.79362600      -2.56589500  T        1        2
C        0.80021700       0.40804100       5.43888600  F        0        1
C        2.19443800       0.50951300       4.82079500  F        0        1
O        1.96659600       0.10404200       3.45910300  F        0        1
C        0.66015900       0.16905200       3.19296000  F        0        1
O       -0.06112700       0.42546600       4.28404200  F        0        1
O        0.18646800       0.01087400       2.09844500  F        0        1
H        0.63567700      -0.52938000       5.97214500  F        0        1
H        0.53861000       1.25172300       6.07389000  F        0        1
H        2.58496800       1.52818500       4.81293900  F        0        1
H        2.92122600      -0.16709300       5.26540600  F        0        1
C        0.90021800      -4.37713900      -0.91999700  F        0        1
C        2.18111600      -4.34021700      -1.75480200  F        0        1
O        2.83394500      -3.14491800      -1.28710200  F        0        1
C        1.95899200      -2.39946300      -0.61013400  F        0        1
O        0.79432100      -3.02537600      -0.43706500  F        0        1
O        2.20002100      -1.29354000      -0.20255000  F        0        1
H        0.00772800      -4.60657000      -1.49832000  F        0        1
H        0.97157600      -5.04323100      -0.05902700  F        0        1
H        2.84306400      -5.18526200      -1.57740600  F        0        1
H        1.99136400      -4.22899400      -2.82320100  F        0        1
41
Properties=species:S:1:pos:R:3:is_solvent:L:1:group_label:I:1:tags:I:1 Coordinates=T from=T ORCA-job=T Li1EC4_r04_charge_1_spin_1_liquid_t_traj_2_frame_0001=T E=T -1378.039069985914=T solvent_indices_0based="_JSON [11, 12, 13, 14, 15, 16, 17, 18, 19, 20]" complex_indices_0based="_JSON [0, 1, 2, 3, 4, 5, 6, 7, 8, 9, 10, 21, 22, 23, 24, 25, 26, 27, 28, 29, 30, 31, 32, 33, 34, 35, 36, 37, 38, 39, 40]" complex_indices_1based="_JSON [1, 2, 3, 4, 5, 6, 7, 8, 9, 10, 11, 22, 23, 24, 25, 26, 27, 28, 29, 30, 31, 32, 33, 34, 35, 36, 37, 38, 39, 40, 41]" pbc="F F F"
Li       1.35683619      -0.01747658       0.56610382  F        0        1
C        4.52798989       1.87237580      -2.22754301  F        0        1
C        4.88379972       3.08802729      -1.37131148  F        0        1
O        4.16325340       2.83815259      -0.14873488  F        0        1
C        3.25068494       1.89201617      -0.36153870  F        0        1
O        3.34358908       1.36740315      -1.58283028  F        0        1
O        2.43426930       1.55494104       0.45799191  F        0        1
H        4.28040083       2.11929465      -3.25768410  F        0        1
H        5.28938515       1.09176662      -2.19969741  F        0        1
H        5.94298028       3.16331401      -1.13481289  F        0        1
H        4.52454480       4.02799396      -1.79250630  F        0        1
C       -2.56330830       2.19271281      -0.95672062  T        1        2
C       -3.28392992       1.12834104      -1.78433867  T        1        2
O       -2.22822054       0.20857530      -2.11218299  T        1        2
C       -1.18130043       0.42788013      -1.30815427  T        1        2
O       -1.35764703       1.52159651      -0.55375141  T        1        2
O       -0.20431132      -0.26670077      -1.26893333  T        1        2
H       -2.28875074       3.07222461      -1.54142183  T        1        2
H       -3.10686698       2.49269331      -0.06305325  T        1        2
H       -4.04355471       0.59000329      -1.21533853  T        1        2
H       -3.71040645       1.50872766      -2.71030971  T        1        2
C        0.39386152       0.62265678       5.49562321  F        0        1
C        1.86259793       0.71611276       5.08049932  F        0        1
O        1.83792039       0.23877978       3.72208114  F        0        1
C        0.58285994       0.25274614       3.27200573  F        0        1
O       -0.29183584       0.55283225       4.22973097  F        0        1
O        0.27431071       0.01767527       2.13173306  F        0        1
H        0.16426271      -0.28385248       6.05713196  F        0        1
H        0.03346179       1.49784218       6.03189125  F        0        1
H        2.24114218       1.73908763       5.07520405  F        0        1
H        2.52350870       0.07387079       5.65857891  F        0        1
C        0.48181803      -4.31740833      -0.85018820  F        0        1
C        1.51309634      -4.25653699      -1.97937552  F        0        1
O        2.41788893      -3.22848047      -1.53562231  F        0        1
C        1.85437548      -2.54147310      -0.54443380  F        0        1
O        0.70833060      -3.08674667      -0.14022318  F        0        1
O        2.33454803      -1.54640211      -0.06347409  F        0        1
H       -0.54776902      -4.32558221      -1.20204123  F        0        1
H        0.65059708      -5.14559248      -0.16079945  F        0        1
H        2.07717078      -5.17826275      -2.10651211  F        0        1
H        1.08431761      -3.94262180      -2.93166364  F        0        1
41
Properties=species:S:1:pos:R:3:is_solvent:L:1:group_label:I:1:tags:I:1 Coordinates=T from=T ORCA-job=T Li1EC4_r04_charge_1_spin_1_liquid_t_traj_2_frame_0001=T E=T -1378.039069985914=T solvent_indices_0based="_JSON [11, 12, 13, 14, 15, 16, 17, 18, 19, 20]" complex_indices_0based="_JSON [0, 1, 2, 3, 4, 5, 6, 7, 8, 9, 10, 21, 22, 23, 24, 25, 26, 27, 28, 29, 30, 31, 32, 33, 34, 35, 36, 37, 38, 39, 40]" complex_indices_1based="_JSON [1, 2, 3, 4, 5, 6, 7, 8, 9, 10, 11, 22, 23, 24, 25, 26, 27, 28, 29, 30, 31, 32, 33, 34, 35, 36, 37, 38, 39, 40, 41]" pbc="F F F"
Li       1.35683600      -0.01747700       0.56610400  F        0        1
C        4.52799000       1.87237600      -2.22754300  F        0        1
C        4.88380000       3.08802700      -1.37131100  F        0        1
O        4.16325300       2.83815300      -0.14873500  F        0        1
C        3.25068500       1.89201600      -0.36153900  F        0        1
O        3.34358900       1.36740300      -1.58283000  F        0        1
O        2.43426900       1.55494100       0.45799200  F        0        1
H        4.28040100       2.11929500      -3.25768400  F        0        1
H        5.28938500       1.09176700      -2.19969700  F        0        1
H        5.94298000       3.16331400      -1.13481300  F        0        1
H        4.52454500       4.02799400      -1.79250600  F        0        1
C       -2.56330800       2.19271300      -0.95672100  T        1        2
C       -3.28393000       1.12834100      -1.78433900  T        1        2
O       -2.22822100       0.20857500      -2.11218300  T        1        2
C       -1.18130000       0.42788000      -1.30815400  T        1        2
O       -1.35764700       1.52159700      -0.55375100  T        1        2
O       -0.20431100      -0.26670100      -1.26893300  T        1        2
H       -2.28875100       3.07222500      -1.54142200  T        1        2
H       -3.10686700       2.49269300      -0.06305300  T        1        2
H       -4.04355500       0.59000300      -1.21533900  T        1        2
H       -3.71040600       1.50872800      -2.71031000  T        1        2
C        0.39386200       0.62265700       5.49562300  F        0        1
C        1.86259800       0.71611300       5.08049900  F        0        1
O        1.83792000       0.23878000       3.72208100  F        0        1
C        0.58286000       0.25274600       3.27200600  F        0        1
O       -0.29183600       0.55283200       4.22973100  F        0        1
O        0.27431100       0.01767500       2.13173300  F        0        1
H        0.16426300      -0.28385200       6.05713200  F        0        1
H        0.03346200       1.49784200       6.03189100  F        0        1
H        2.24114200       1.73908800       5.07520400  F        0        1
H        2.52350900       0.07387100       5.65857900  F        0        1
C        0.48181800      -4.31740800      -0.85018800  F        0        1
C        1.51309600      -4.25653700      -1.97937600  F        0        1
O        2.41788900      -3.22848000      -1.53562200  F        0        1
C        1.85437500      -2.54147300      -0.54443400  F        0        1
O        0.70833100      -3.08674700      -0.14022300  F        0        1
O        2.33454800      -1.54640200      -0.06347400  F        0        1
H       -0.54776900      -4.32558200      -1.20204100  F        0        1
H        0.65059700      -5.14559200      -0.16079900  F        0        1
H        2.07717100      -5.17826300      -2.10651200  F        0        1
H        1.08431800      -3.94262200      -2.93166400  F        0        1
41
Properties=species:S:1:pos:R:3:is_solvent:L:1:group_label:I:1:tags:I:1 Coordinates=T from=T ORCA-job=T Li1EC4_r04_charge_1_spin_1_liquid_t_traj_2_frame_0002=T E=T -1378.041432194222=T solvent_indices_0based="_JSON [11, 12, 13, 14, 15, 16, 17, 18, 19, 20]" complex_indices_0based="_JSON [0, 1, 2, 3, 4, 5, 6, 7, 8, 9, 10, 21, 22, 23, 24, 25, 26, 27, 28, 29, 30, 31, 32, 33, 34, 35, 36, 37, 38, 39, 40]" complex_indices_1based="_JSON [1, 2, 3, 4, 5, 6, 7, 8, 9, 10, 11, 22, 23, 24, 25, 26, 27, 28, 29, 30, 31, 32, 33, 34, 35, 36, 37, 38, 39, 40, 41]" pbc="F F F"
Li       1.04404703       0.62205796      -0.05000837  F        0        1
C        4.65064393       1.85731478      -2.69867022  F        0        1
C        4.94095004       3.20587314      -2.03910459  F        0        1
O        4.00945175       3.22772084      -0.93871800  F        0        1
C        3.08179096       2.29581835      -1.13087597  F        0        1
O        3.34063930       1.53396042      -2.19167610  F        0        1
O        2.11209284       2.16176959      -0.42520844  F        0        1
H        4.59818106       1.90162317      -3.78427883  F        0        1
H        5.33884013       1.07090900      -2.38611881  F        0        1
H        5.94824851       3.29069673      -1.63747293  F        0        1
H        4.72134158       4.05563150      -2.68682230  F        0        1
C       -1.41424809       2.02495784      -1.25887823  T        1        2
C       -2.69910937       1.56540486      -0.56709359  T        1        2
O       -2.62433471       0.13060100      -0.65071395  T        1        2
C       -1.37804099      -0.24088556      -0.92471988  T        1        2
O       -0.61025205       0.82927844      -1.26046552  T        1        2
O       -0.94386113      -1.35111272      -0.88283022  T        1        2
H       -1.56831817       2.33022248      -2.29409175  T        1        2
H       -0.87997862       2.79800329      -0.71008103  T        1        2
H       -2.72834645       1.84097519       0.48712752  T        1        2
H       -3.60562747       1.89138202      -1.07248177  T        1        2
C       -0.47967164       0.03168393       4.82501787  F        0        1
C        1.03816864      -0.01046536       4.63548969  F        0        1
O        1.18502355       0.10089206       3.20543015  F        0        1
C        0.03604322       0.50515794       2.67523532  F        0        1
O       -0.94386613       0.57040467       3.57016347  F        0        1
O       -0.10711875       0.78868906       1.51024308  F        0        1
H       -0.92326832      -0.95617284       4.95367680  F        0        1
H       -0.80338109       0.69564161       5.62356712  F        0        1
H        1.55154037       0.83447598       5.09565862  F        0        1
H        1.49336904      -0.94553605       4.95433018  F        0        1
C        0.73878178      -4.13982659       0.00876251  F        0        1
C        0.93770448      -3.89053027      -1.48996753  F        0        1
O        1.69657768      -2.66759807      -1.51801241  F        0        1
C        1.64512844      -2.09210233      -0.32433671  F        0        1
O        1.12283056      -2.88619275       0.60389986  F        0        1
O        2.04790914      -0.97527982      -0.09762908  F        0        1
H       -0.29753560      -4.33882112       0.27434412  F        0        1
H        1.38954464      -4.91831191       0.40790567  F        0        1
H        1.51753715      -4.66446740      -1.98874160  F        0        1
H       -0.00029029      -3.71400120      -2.01509492  F        0        1
41
Properties=species:S:1:pos:R:3:is_solvent:L:1:group_label:I:1:tags:I:1 Coordinates=T from=T ORCA-job=T Li1EC4_r04_charge_1_spin_1_liquid_t_traj_2_frame_0002=T E=T -1378.041432194222=T solvent_indices_0based="_JSON [11, 12, 13, 14, 15, 16, 17, 18, 19, 20]" complex_indices_0based="_JSON [0, 1, 2, 3, 4, 5, 6, 7, 8, 9, 10, 21, 22, 23, 24, 25, 26, 27, 28, 29, 30, 31, 32, 33, 34, 35, 36, 37, 38, 39, 40]" complex_indices_1based="_JSON [1, 2, 3, 4, 5, 6, 7, 8, 9, 10, 11, 22, 23, 24, 25, 26, 27, 28, 29, 30, 31, 32, 33, 34, 35, 36, 37, 38, 39, 40, 41]" pbc="F F F"
Li       1.04404700       0.62205800      -0.05000800  F        0        1
C        4.65064400       1.85731500      -2.69867000  F        0        1
C        4.94095000       3.20587300      -2.03910500  F        0        1
O        4.00945200       3.22772100      -0.93871800  F        0        1
C        3.08179100       2.29581800      -1.13087600  F        0        1
O        3.34063900       1.53396000      -2.19167600  F        0        1
O        2.11209300       2.16177000      -0.42520800  F        0        1
H        4.59818100       1.90162300      -3.78427900  F        0        1
H        5.33884000       1.07090900      -2.38611900  F        0        1
H        5.94824900       3.29069700      -1.63747300  F        0        1
H        4.72134200       4.05563100      -2.68682200  F        0        1
C       -1.41424800       2.02495800      -1.25887800  T        1        2
C       -2.69910900       1.56540500      -0.56709400  T        1        2
O       -2.62433500       0.13060100      -0.65071400  T        1        2
C       -1.37804100      -0.24088600      -0.92472000  T        1        2
O       -0.61025200       0.82927800      -1.26046600  T        1        2
O       -0.94386100      -1.35111300      -0.88283000  T        1        2
H       -1.56831800       2.33022200      -2.29409200  T        1        2
H       -0.87997900       2.79800300      -0.71008100  T        1        2
H       -2.72834600       1.84097500       0.48712800  T        1        2
H       -3.60562700       1.89138200      -1.07248200  T        1        2
C       -0.47967200       0.03168400       4.82501800  F        0        1
C        1.03816900      -0.01046500       4.63549000  F        0        1
O        1.18502400       0.10089200       3.20543000  F        0        1
C        0.03604300       0.50515800       2.67523500  F        0        1
O       -0.94386600       0.57040500       3.57016300  F        0        1
O       -0.10711900       0.78868900       1.51024300  F        0        1
H       -0.92326800      -0.95617300       4.95367700  F        0        1
H       -0.80338100       0.69564200       5.62356700  F        0        1
H        1.55154000       0.83447600       5.09565900  F        0        1
H        1.49336900      -0.94553600       4.95433000  F        0        1
C        0.73878200      -4.13982700       0.00876300  F        0        1
C        0.93770400      -3.89053000      -1.48996800  F        0        1
O        1.69657800      -2.66759800      -1.51801200  F        0        1
C        1.64512800      -2.09210200      -0.32433700  F        0        1
O        1.12283100      -2.88619300       0.60390000  F        0        1
O        2.04790900      -0.97528000      -0.09762900  F        0        1
H       -0.29753600      -4.33882100       0.27434400  F        0        1
H        1.38954500      -4.91831200       0.40790600  F        0        1
H        1.51753700      -4.66446700      -1.98874200  F        0        1
H       -0.00029000      -3.71400100      -2.01509500  F        0        1
41
Properties=species:S:1:pos:R:3:is_solvent:L:1:group_label:I:1:tags:I:1 Coordinates=T from=T ORCA-job=T Li1EC4_r04_charge_1_spin_1_liquid_t_traj_2_frame_0003=T E=T -1378.033881064306=T solvent_indices_0based="_JSON [11, 12, 13, 14, 15, 16, 17, 18, 19, 20]" complex_indices_0based="_JSON [0, 1, 2, 3, 4, 5, 6, 7, 8, 9, 10, 21, 22, 23, 24, 25, 26, 27, 28, 29, 30, 31, 32, 33, 34, 35, 36, 37, 38, 39, 40]" complex_indices_1based="_JSON [1, 2, 3, 4, 5, 6, 7, 8, 9, 10, 11, 22, 23, 24, 25, 26, 27, 28, 29, 30, 31, 32, 33, 34, 35, 36, 37, 38, 39, 40, 41]" pbc="F F F"
Li       1.39069723       0.31323608       1.04083316  F        0        1
C        5.53759063       0.78681247      -1.26918765  F        0        1
C        4.96547612       1.75346228      -2.30804883  F        0        1
O        3.73732021       2.19162036      -1.69734626  F        0        1
C        3.43246611       1.38104411      -0.68810992  F        0        1
O        4.39500806       0.49335629      -0.44306483  F        0        1
O        2.40505940       1.45052754      -0.06317679  F        0        1
H        5.90311410      -0.14573618      -1.69399349  F        0        1
H        6.30574524       1.23886171      -0.64054421  F        0        1
H        5.59104058       2.62558928      -2.48605879  F        0        1
H        4.72084890       1.26840797      -3.25389153  F        0        1
C       -3.82927731       1.29490478      -1.26893746  T        1        2
C       -4.08372519       0.25251933      -2.35661770  T        1        2
O       -2.76694960      -0.26499566      -2.61339468  T        1        2
C       -1.95201909       0.06672079      -1.59867750  T        1        2
O       -2.55796578       0.89161843      -0.73349821  T        1        2
O       -0.82701454      -0.32625620      -1.48576456  T        1        2
H       -3.73075156       2.30694408      -1.66548204  T        1        2
H       -4.56426121       1.27797057      -0.46674911  T        1        2
H       -4.71675127      -0.56914820      -2.01705085  T        1        2
H       -4.47801867       0.67097152      -3.28046769  T        1        2
C        0.37957978       1.37809790       6.01792092  F        0        1
C        1.85071745       1.00494544       5.82774116  F        0        1
O        1.90051938       0.60387538       4.44392831  F        0        1
C        0.79574487       1.01996150       3.82489693  F        0        1
O       -0.08214391       1.55763425       4.66444709  F        0        1
O        0.61200713       0.92103468       2.63850168  F        0        1
H       -0.20847686       0.58078366       6.47398065  F        0        1
H        0.23023351       2.31077588       6.55751091  F        0        1
H        2.52715780       1.85006618       5.96133122  F        0        1
H        2.17227370       0.16543546       6.44032930  F        0        1
C        1.24401051      -2.23951306      -2.79030657  F        0        1
C        0.34660570      -3.31756641      -2.17007455  F        0        1
O        0.35378535      -2.99353795      -0.76909080  F        0        1
C        1.17711092      -1.98185295      -0.54352635  F        0        1
O        1.81600355      -1.58561322      -1.64297695  F        0        1
O        1.35129188      -1.49051980       0.54565749  F        0        1
H        2.05694295      -2.64355830      -3.39130118  F        0        1
H        0.67643186      -1.49799067      -3.34985517  F        0        1
H       -0.68111687      -3.26471647      -2.52437534  F        0        1
H        0.73606169      -4.32899600      -2.28536951  F        0        1
41
Properties=species:S:1:pos:R:3:is_solvent:L:1:group_label:I:1:tags:I:1 Coordinates=T from=T ORCA-job=T Li1EC4_r04_charge_1_spin_1_liquid_t_traj_2_frame_0003=T E=T -1378.033881064306=T solvent_indices_0based="_JSON [11, 12, 13, 14, 15, 16, 17, 18, 19, 20]" complex_indices_0based="_JSON [0, 1, 2, 3, 4, 5, 6, 7, 8, 9, 10, 21, 22, 23, 24, 25, 26, 27, 28, 29, 30, 31, 32, 33, 34, 35, 36, 37, 38, 39, 40]" complex_indices_1based="_JSON [1, 2, 3, 4, 5, 6, 7, 8, 9, 10, 11, 22, 23, 24, 25, 26, 27, 28, 29, 30, 31, 32, 33, 34, 35, 36, 37, 38, 39, 40, 41]" pbc="F F F"
Li       1.39069700       0.31323600       1.04083300  F        0        1
C        5.53759100       0.78681200      -1.26918800  F        0        1
C        4.96547600       1.75346200      -2.30804900  F        0        1
O        3.73732000       2.19162000      -1.69734600  F        0        1
C        3.43246600       1.38104400      -0.68811000  F        0        1
O        4.39500800       0.49335600      -0.44306500  F        0        1
O        2.40505900       1.45052800      -0.06317700  F        0        1
H        5.90311400      -0.14573600      -1.69399300  F        0        1
H        6.30574500       1.23886200      -0.64054400  F        0        1
H        5.59104100       2.62558900      -2.48605900  F        0        1
H        4.72084900       1.26840800      -3.25389200  F        0        1
C       -3.82927700       1.29490500      -1.26893700  T        1        2
C       -4.08372500       0.25251900      -2.35661800  T        1        2
O       -2.76695000      -0.26499600      -2.61339500  T        1        2
C       -1.95201900       0.06672100      -1.59867700  T        1        2
O       -2.55796600       0.89161800      -0.73349800  T        1        2
O       -0.82701500      -0.32625600      -1.48576500  T        1        2
H       -3.73075200       2.30694400      -1.66548200  T        1        2
H       -4.56426100       1.27797100      -0.46674900  T        1        2
H       -4.71675100      -0.56914800      -2.01705100  T        1        2
H       -4.47801900       0.67097200      -3.28046800  T        1        2
C        0.37958000       1.37809800       6.01792100  F        0        1
C        1.85071700       1.00494500       5.82774100  F        0        1
O        1.90051900       0.60387500       4.44392800  F        0        1
C        0.79574500       1.01996100       3.82489700  F        0        1
O       -0.08214400       1.55763400       4.66444700  F        0        1
O        0.61200700       0.92103500       2.63850200  F        0        1
H       -0.20847700       0.58078400       6.47398100  F        0        1
H        0.23023400       2.31077600       6.55751100  F        0        1
H        2.52715800       1.85006600       5.96133100  F        0        1
H        2.17227400       0.16543500       6.44032900  F        0        1
C        1.24401100      -2.23951300      -2.79030700  F        0        1
C        0.34660600      -3.31756600      -2.17007500  F        0        1
O        0.35378500      -2.99353800      -0.76909100  F        0        1
C        1.17711100      -1.98185300      -0.54352600  F        0        1
O        1.81600400      -1.58561300      -1.64297700  F        0        1
O        1.35129200      -1.49052000       0.54565700  F        0        1
H        2.05694300      -2.64355800      -3.39130100  F        0        1
H        0.67643200      -1.49799100      -3.34985500  F        0        1
H       -0.68111700      -3.26471600      -2.52437500  F        0        1
H        0.73606200      -4.32899600      -2.28537000  F        0        1
41
Properties=species:S:1:pos:R:3:is_solvent:L:1:group_label:I:1:tags:I:1 Coordinates=T from=T ORCA-job=T Li1EC4_r04_charge_1_spin_1_liquid_t_traj_2_frame_0004=T E=T -1378.033134516475=T solvent_indices_0based="_JSON [11, 12, 13, 14, 15, 16, 17, 18, 19, 20]" complex_indices_0based="_JSON [0, 1, 2, 3, 4, 5, 6, 7, 8, 9, 10, 21, 22, 23, 24, 25, 26, 27, 28, 29, 30, 31, 32, 33, 34, 35, 36, 37, 38, 39, 40]" complex_indices_1based="_JSON [1, 2, 3, 4, 5, 6, 7, 8, 9, 10, 11, 22, 23, 24, 25, 26, 27, 28, 29, 30, 31, 32, 33, 34, 35, 36, 37, 38, 39, 40, 41]" pbc="F F F"
Li       1.72437893       0.32909399       0.90585692  F        0        1
C        5.70652923       0.85980838      -1.72782811  F        0        1
C        5.81979992       2.36869160      -1.50405950  F        0        1
O        4.84122207       2.61358350      -0.47500163  F        0        1