41
Properties=species:S:1:pos:R:3:is_solvent:L:1:group_label:I:1:tags:I:1 Coordinates=T from=T ORCA-job=T Li1EC4_r07_charge_1_spin_1_liquid_t_traj_2_frame_0000=T E=T -1378.044436426103=T solvent_indices_0based="_JSON [11, 12, 13, 14, 15, 16, 17, 18, 19, 20]" complex_indices_0based="_JSON [0, 1, 2, 3, 4, 5, 6, 7, 8, 9, 10, 21, 22, 23, 24, 25, 26, 27, 28, 29, 30, 31, 32, 33, 34, 35, 36, 37, 38, 39, 40]" complex_indices_1based="_JSON [1, 2, 3, 4, 5, 6, 7, 8, 9, 10, 11, 22, 23, 24, 25, 26, 27, 28, 29, 30, 31, 32, 33, 34, 35, 36, 37, 38, 39, 40, 41]" pbc="F F F"
Li       0.03292741       0.14655305       0.15481456  F        0        1
C        4.22124450       0.95189694       2.15331395  F        0        1
C        4.01037179       2.45314448       2.35043469  F        0        1
O        2.92525603       2.74467211       1.45018102  F        0        1
C        2.32844687       1.60615112       1.09589091  F        0        1
O        2.98649484       0.53451080       1.54221229  F        0        1
O        1.31787331       1.55518790       0.44531857  F        0        1
H        5.03724928       0.72047034       1.46727430  F        0        1
H        4.34704257       0.40293727       3.08421817  F        0        1
H        3.69251127       2.70886438       3.36213403  F        0        1
H        4.86758586       3.05790420       2.06216222  F        0        1
C        1.00536780      -0.77550999      -4.33531809  T        1        2
C        0.57128118      -2.24083067      -4.29369154  T        1        2
O        0.59587071      -2.54251788      -2.88625606  T        1        2
C        0.63178251      -1.40439028      -2.19143253  T        1        2
O        0.78668121      -0.33974654      -2.98100863  T        1        2
O        0.54122759      -1.34901127      -0.99320619  T        1        2
H        2.06337050      -0.64814557      -4.56859993  T        1        2
H        0.39897825      -0.16009304      -4.99665977  T        1        2
H       -0.44556608      -2.39329348      -4.65802451  T        1        2
H        1.25699124      -2.91576444      -4.80160294  T        1        2
C       -2.90204220       3.75834219       0.62429156  F        0        1
C       -3.25202636       3.88389081      -0.85901161  F        0        1
O       -2.84174081       2.61239035      -1.39385792  F        0        1
C       -2.04215693       2.00152633      -0.51855709  F        0        1
O       -1.97383931       2.65848979       0.64126871  F        0        1
O       -1.45793916       0.97579050      -0.74930415  F        0        1
H       -2.40253671       4.63459916       1.03225128  F        0        1
H       -3.75947350       3.49258417       1.24424554  F        0        1
H       -4.31601254       4.00895163      -1.04883496  F        0        1
H       -2.68578348       4.66700022      -1.36510339  F        0        1
C       -1.36922851      -3.58775728       3.29692667  F        0        1
C       -1.89342078      -3.68246939       1.86435860  F        0        1
O       -1.63924249      -2.36429966       1.34670842  F        0        1
C       -0.75491087      -1.74630277       2.13310350  F        0        1
O       -0.49673960      -2.44314044       3.23973326  F        0        1
O       -0.25267942      -0.68300097       1.87889997  F        0        1
H       -2.15225824      -3.38362698       4.02858563  F        0        1
H       -0.78266590      -4.45024690       3.60616878  F        0        1
H       -1.34030420      -4.40110600       1.25768761  F        0        1
H       -2.96159324      -3.87796488       1.79867404  F        0        1
41
Properties=species:S:1:pos:R:3:is_solvent:L:1:group_label:I:1:tags:I:1 Coordinates=T from=T ORCA-job=T Li1EC4_r07_charge_1_spin_1_liquid_t_traj_2_frame_0000=T E=T -1378.044436426103=T solvent_indices_0based="_JSON [11, 12, 13, 14, 15, 16, 17, 18, 19, 20]" complex_indices_0based="_JSON [0, 1, 2, 3, 4, 5, 6, 7, 8, 9, 10, 21, 22, 23, 24, 25, 26, 27, 28, 29, 30, 31, 32, 33, 34, 35, 36, 37, 38, 39, 40]" complex_indices_1based="_JSON [1, 2, 3, 4, 5, 6, 7, 8, 9, 10, 11, 22, 23, 24, 25, 26, 27, 28, 29, 30, 31, 32, 33, 34, 35, 36, 37, 38, 39, 40, 41]" pbc="F F F"
Li       0.03292700       0.14655300       0.15481500  F        0        1
C        4.22124400       0.95189700       2.15331400  F        0        1
C        4.01037200       2.45314400       2.35043500  F        0        1
O        2.92525600       2.74467200       1.45018100  F        0        1
C        2.32844700       1.60615100       1.09589100  F        0        1
O        2.98649500       0.53451100       1.54221200  F        0        1
O        1.31787300       1.55518800       0.44531900  F        0        1
H        5.03724900       0.72047000       1.46727400  F        0        1
H        4.34704300       0.40293700       3.08421800  F        0        1
H        3.69251100       2.70886400       3.36213400  F        0        1
H        4.86758600       3.05790400       2.06216200  F        0        1
C        1.00536800      -0.77551000      -4.33531800  T        1        2
C        0.57128100      -2.24083100      -4.29369200  T        1        2
O        0.59587100      -2.54251800      -2.88625600  T        1        2
C        0.63178300      -1.40439000      -2.19143300  T        1        2
O        0.78668100      -0.33974700      -2.98100900  T        1        2
O        0.54122800      -1.34901100      -0.99320600  T        1        2
H        2.06337100      -0.64814600      -4.56860000  T        1        2
H        0.39897800      -0.16009300      -4.99666000  T        1        2
H       -0.44556600      -2.39329300      -4.65802500  T        1        2
H        1.25699100      -2.91576400      -4.80160300  T        1        2
C       -2.90204200       3.75834200       0.62429200  F        0        1
C       -3.25202600       3.88389100      -0.85901200  F        0        1
O       -2.84174100       2.61239000      -1.39385800  F        0        1
C       -2.04215700       2.00152600      -0.51855700  F        0        1
O       -1.97383900       2.65849000       0.64126900  F        0        1
O       -1.45793900       0.97579000      -0.74930400  F        0        1
H       -2.40253700       4.63459900       1.03225100  F        0        1
H       -3.75947300       3.49258400       1.24424600  F        0        1
H       -4.31601300       4.00895200      -1.04883500  F        0        1
H       -2.68578300       4.66700000      -1.36510300  F        0        1
C       -1.36922900      -3.58775700       3.29692700  F        0        1
C       -1.89342100      -3.68246900       1.86435900  F        0        1
O       -1.63924200      -2.36430000       1.34670800  F        0        1
C       -0.75491100      -1.74630300       2.13310300  F        0        1
O       -0.49674000      -2.44314000       3.23973300  F        0        1
O       -0.25267900      -0.68300100       1.87890000  F        0        1
H       -2.15225800      -3.38362700       4.02858600  F        0        1
H       -0.78266600      -4.45024700       3.60616900  F        0        1
H       -1.34030400      -4.40110600       1.25768800  F        0        1
H       -2.96159300      -3.87796500       1.79867400  F        0        1
41
Properties=species:S:1:pos:R:3:is_solvent:L:1:group_label:I:1:tags:I:1 Coordinates=T from=T ORCA-job=T Li1EC4_r07_charge_1_spin_1_liquid_t_traj_2_frame_0001=T E=T -1378.038254132400=T solvent_indices_0based="_JSON [11, 12, 13, 14, 15, 16, 17, 18, 19, 20]" complex_indices_0based="_JSON [0, 1, 2, 3, 4, 5, 6, 7, 8, 9, 10, 21, 22, 23, 24, 25, 26, 27, 28, 29, 30, 31, 32, 33, 34, 35, 36, 37, 38, 39, 40]" complex_indices_1based="_JSON [1, 2, 3, 4, 5, 6, 7, 8, 9, 10, 11, 22, 23, 24, 25, 26, 27, 28, 29, 30, 31, 32, 33, 34, 35, 36, 37, 38, 39, 40, 41]" pbc="F F F"
Li      -0.35661616       0.60931049       0.68301176  F        0        1
C        4.22022017       0.38613850       1.08529424  F        0        1
C        4.57091328       1.77994994       0.56698269  F        0        1
O        3.31670327       2.24162631       0.03023984  F        0        1
C        2.33150455       1.48470262       0.51136721  F        0        1
O        2.78912497       0.44947631       1.21399054  F        0        1
O        1.16307441       1.71726045       0.33279422  F        0        1
H        4.46314994      -0.40634256       0.37556504  F        0        1
H        4.64497490       0.16086439       2.06109540  F        0        1
H        4.87657626       2.46414552       1.35981375  F        0        1
H        5.30861491       1.78019471      -0.23256511  F        0        1
C        2.52711229      -0.99972933      -3.10642111  T        1        2
C        1.47737610      -1.95607587      -3.67131342  T        1        2
O        0.71556466      -2.31815691      -2.50755784  T        1        2
C        0.95915551      -1.44790614      -1.52152892  T        1        2
O        1.95816580      -0.60709116      -1.84440249  T        1        2
O        0.36700676      -1.42502392      -0.48042527  T        1        2
H        3.48533302      -1.48582292      -2.91524251  T        1        2
H        2.67241185      -0.10741787      -3.71214123  T        1        2
H        0.80704570      -1.47406820      -4.38452644  T        1        2
H        1.89699046      -2.86155458      -4.10454227  T        1        2
C       -3.95694823       3.81330709       0.63487387  F        0        1
C       -4.26738765       3.61307058      -0.84897913  F        0        1
O       -3.55636232       2.39996167      -1.16420093  F        0        1
C       -2.68235773       2.13688582      -0.19636464  F        0        1
O       -2.80382028       2.97235930       0.83526946  F        0        1
O       -1.87684038       1.24337505      -0.24802834  F        0        1
H       -3.68496554       4.83472095       0.89202438  F        0        1
H       -4.75401809       3.45943364       1.28984900  F        0        1
H       -5.32314783       3.45485967      -1.05807472  F        0        1
H       -3.87421008       4.41170939      -1.47919416  F        0        1
C       -1.16727158      -3.70454046       2.88165059  F        0        1
C       -2.00399752      -3.37222317       1.64874352  F        0        1
O       -1.91720795      -1.93653190       1.59568728  F        0        1
C       -0.85772738      -1.54307389       2.30340929  F        0        1
O       -0.33462368      -2.53583334       3.01895717  F        0        1
O       -0.42770566      -0.41700646       2.29691684  F        0        1
H       -1.76435898      -3.80694364       3.78905526  F        0        1
H       -0.52260404      -4.57149316       2.75500365  F        0        1
H       -1.57801110      -3.76968923       0.72616092  F        0        1
H       -3.05131224      -3.65185361       1.73818631  F        0        1
41
Properties=species:S:1:pos:R:3:is_solvent:L:1:group_label:I:1:tags:I:1 Coordinates=T from=T ORCA-job=T Li1EC4_r07_charge_1_spin_1_liquid_t_traj_2_frame_0001=T E=T -1378.038254132400=T solvent_indices_0based="_JSON [11, 12, 13, 14, 15, 16, 17, 18, 19, 20]" complex_indices_0based="_JSON [0, 1, 2, 3, 4, 5, 6, 7, 8, 9, 10, 21, 22, 23, 24, 25, 26, 27, 28, 29, 30, 31, 32, 33, 34, 35, 36, 37, 38, 39, 40]" complex_indices_1based="_JSON [1, 2, 3, 4, 5, 6, 7, 8, 9, 10, 11, 22, 23, 24, 25, 26, 27, 28, 29, 30, 31, 32, 33, 34, 35, 36, 37, 38, 39, 40, 41]" pbc="F F F"
Li      -0.35661600       0.60931000       0.68301200  F        0        1
C        4.22022000       0.38613900       1.08529400  F        0        1
C        4.57091300       1.77995000       0.56698300  F        0        1
O        3.31670300       2.24162600       0.03024000  F        0        1
C        2.33150500       1.48470300       0.51136700  F        0        1
O        2.78912500       0.44947600       1.21399100  F        0        1
O        1.16307400       1.71726000       0.33279400  F        0        1
H        4.46315000      -0.40634300       0.37556500  F        0        1
H        4.64497500       0.16086400       2.06109500  F        0        1
H        4.87657600       2.46414600       1.35981400  F        0        1
H        5.30861500       1.78019500      -0.23256500  F        0        1
C        2.52711200      -0.99972900      -3.10642100  T        1        2
C        1.47737600      -1.95607600      -3.67131300  T        1        2
O        0.71556500      -2.31815700      -2.50755800  T        1        2
C        0.95915600      -1.44790600      -1.52152900  T        1        2
O        1.95816600      -0.60709100      -1.84440200  T        1        2
O        0.36700700      -1.42502400      -0.48042500  T        1        2
H        3.48533300      -1.48582300      -2.91524300  T        1        2
H        2.67241200      -0.10741800      -3.71214100  T        1        2
H        0.80704600      -1.47406800      -4.38452600  T        1        2
H        1.89699000      -2.86155500      -4.10454200  T        1        2
C       -3.95694800       3.81330700       0.63487400  F        0        1
C       -4.26738800       3.61307100      -0.84897900  F        0        1
O       -3.55636200       2.39996200      -1.16420100  F        0        1
C       -2.68235800       2.13688600      -0.19636500  F        0        1
O       -2.80382000       2.97235900       0.83526900  F        0        1
O       -1.87684000       1.24337500      -0.24802800  F        0        1
H       -3.68496600       4.83472100       0.89202400  F        0        1
H       -4.75401800       3.45943400       1.28984900  F        0        1
H       -5.32314800       3.45486000      -1.05807500  F        0        1
H       -3.87421000       4.41170900      -1.47919400  F        0        1
C       -1.16727200      -3.70454000       2.88165100  F        0        1
C       -2.00399800      -3.37222300       1.64874400  F        0        1
O       -1.91720800      -1.93653200       1.59568700  F        0        1
C       -0.85772700      -1.54307400       2.30340900  F        0        1
O       -0.33462400      -2.53583300       3.01895700  F        0        1
O       -0.42770600      -0.41700600       2.29691700  F        0        1
H       -1.76435900      -3.80694400       3.78905500  F        0        1
H       -0.52260400      -4.57149300       2.75500400  F        0        1
H       -1.57801100      -3.76968900       0.72616100  F        0        1
H       -3.05131200      -3.65185400       1.73818600  F        0        1
41
Properties=species:S:1:pos:R:3:is_solvent:L:1:group_label:I:1:tags:I:1 Coordinates=T from=T ORCA-job=T Li1EC4_r07_charge_1_spin_1_liquid_t_traj_2_frame_0002=T E=T -1378.044091342995=T solvent_indices_0based="_JSON [11, 12, 13, 14, 15, 16, 17, 18, 19, 20]" complex_indices_0based="_JSON [0, 1, 2, 3, 4, 5, 6, 7, 8, 9, 10, 21, 22, 23, 24, 25, 26, 27, 28, 29, 30, 31, 32, 33, 34, 35, 36, 37, 38, 39, 40]" complex_indices_1based="_JSON [1, 2, 3, 4, 5, 6, 7, 8, 9, 10, 11, 22, 23, 24, 25, 26, 27, 28, 29, 30, 31, 32, 33, 34, 35, 36, 37, 38, 39, 40, 41]" pbc="F F F"
Li      -0.37383314       0.44927863      -0.23966580  F        0        1
C        3.48518408       0.25143780       2.13853173  F        0        1
C        4.44373646       0.71656541       1.04295127  F        0        1
O        3.55560969       0.96892619      -0.06466243  F        0        1
C        2.30554000       1.02551050       0.38262192  F        0        1
O        2.21639888       0.75488768       1.67958055  F        0        1
O        1.35930449       1.29297377      -0.32030540  F        0        1
H        3.41007786      -0.83479480       2.20293465  F        0        1
H        3.69222684       0.67997361       3.11652067  F        0        1
H        4.95601055       1.64798634       1.28734942  F        0        1
H        5.16231579      -0.04143270       0.73923248  F        0        1
C        1.29643003      -1.54203112      -3.57633051  T        1        2
C        0.18993579      -0.61804636      -3.07306523  T        1        2
O        0.12899088      -0.95948170      -1.67226111  T        1        2
C        1.28942891      -1.55372175      -1.30986578  T        1        2
O        2.02905570      -1.85188679      -2.37350073  T        1        2
O        1.58533142      -1.75868269      -0.16886698  T        1        2
H        0.91722123      -2.47579795      -3.99297964  T        1        2
H        1.97767067      -1.06510266      -4.27731896  T        1        2
H        0.44384099       0.43935210      -3.15286814  T        1        2
H       -0.78465897      -0.80813406      -3.51540428  T        1        2
C       -3.83410241       3.67035476      -0.02502296  F        0        1
C       -4.11864460       3.73260344      -1.52697192  F        0        1
O       -3.36583599       2.61531141      -2.04208129  F        0        1
C       -2.50356504       2.20332533      -1.11908908  F        0        1
O       -2.66199976       2.83279410       0.04216892  F        0        1
O       -1.67021875       1.35309698      -1.31570481  F        0        1
H       -3.59173232       4.63517927       0.41503787  F        0        1
H       -4.62945799       3.18633797       0.54276605  F        0        1
H       -5.16615422       3.58573971      -1.78086421  F        0        1
H       -3.74106541       4.64118625      -1.99731933  F        0        1
C        0.17059189      -3.25655031       3.03117593  F        0        1
C       -0.34426859      -3.80883377       1.70339237  F        0        1
O       -1.00225824      -2.66682361       1.12443179  F        0        1
C       -0.56680116      -1.56275667       1.72963295  F        0        1
O        0.17235281      -1.83443750       2.80207550  F        0        1
O       -0.82854959      -0.44591882       1.36033726  F        0        1
H       -0.49391622      -3.46652204       3.87052777  F        0        1
H        1.18545182      -3.56876752       3.26821768  F        0        1
H        0.46067182      -4.11133795       1.03253684  F        0        1
H       -1.07366179      -4.60845171       1.81260343  F        0        1
41
Properties=species:S:1:pos:R:3:is_solvent:L:1:group_label:I:1:tags:I:1 Coordinates=T from=T ORCA-job=T Li1EC4_r07_charge_1_spin_1_liquid_t_traj_2_frame_0002=T E=T -1378.044091342995=T solvent_indices_0based="_JSON [11, 12, 13, 14, 15, 16, 17, 18, 19, 20]" complex_indices_0based="_JSON [0, 1, 2, 3, 4, 5, 6, 7, 8, 9, 10, 21, 22, 23, 24, 25, 26, 27, 28, 29, 30, 31, 32, 33, 34, 35, 36, 37, 38, 39, 40]" complex_indices_1based="_JSON [1, 2, 3, 4, 5, 6, 7, 8, 9, 10, 11, 22, 23, 24, 25, 26, 27, 28, 29, 30, 31, 32, 33, 34, 35, 36, 37, 38, 39, 40, 41]" pbc="F F F"
Li      -0.37383300       0.44927900      -0.23966600  F        0        1
C        3.48518400       0.25143800       2.13853200  F        0        1
C        4.44373600       0.71656500       1.04295100  F        0        1
O        3.55561000       0.96892600      -0.06466200  F        0        1
C        2.30554000       1.02551000       0.38262200  F        0        1
O        2.21639900       0.75488800       1.67958100  F        0        1
O        1.35930400       1.29297400      -0.32030500  F        0        1
H        3.41007800      -0.83479500       2.20293500  F        0        1
H        3.69222700       0.67997400       3.11652100  F        0        1
H        4.95601100       1.64798600       1.28734900  F        0        1
H        5.16231600      -0.04143300       0.73923200  F        0        1
C        1.29643000      -1.54203100      -3.57633100  T        1        2
C        0.18993600      -0.61804600      -3.07306500  T        1        2
O        0.12899100      -0.95948200      -1.67226100  T        1        2
C        1.28942900      -1.55372200      -1.30986600  T        1        2
O        2.02905600      -1.85188700      -2.37350100  T        1        2
O        1.58533100      -1.75868300      -0.16886700  T        1        2
H        0.91722100      -2.47579800      -3.99298000  T        1        2
H        1.97767100      -1.06510300      -4.27731900  T        1        2
H        0.44384100       0.43935200      -3.15286800  T        1        2
H       -0.78465900      -0.80813400      -3.51540400  T        1        2
C       -3.83410200       3.67035500      -0.02502300  F        0        1
C       -4.11864500       3.73260300      -1.52697200  F        0        1
O       -3.36583600       2.61531100      -2.04208100  F        0        1
C       -2.50356500       2.20332500      -1.11908900  F        0        1
O       -2.66200000       2.83279400       0.04216900  F        0        1
O       -1.67021900       1.35309700      -1.31570500  F        0        1
H       -3.59173200       4.63517900       0.41503800  F        0        1
H       -4.62945800       3.18633800       0.54276600  F        0        1
H       -5.16615400       3.58574000      -1.78086400  F        0        1
H       -3.74106500       4.64118600      -1.99731900  F        0        1
C        0.17059200      -3.25655000       3.03117600  F        0        1
C       -0.34426900      -3.80883400       1.70339200  F        0        1
O       -1.00225800      -2.66682400       1.12443200  F        0        1
C       -0.56680100      -1.56275700       1.72963300  F        0        1
O        0.17235300      -1.83443700       2.80207500  F        0        1
O       -0.82855000      -0.44591900       1.36033700  F        0        1
H       -0.49391600      -3.46652200       3.87052800  F        0        1
H        1.18545200      -3.56876800       3.26821800  F        0        1
H        0.46067200      -4.11133800       1.03253700  F        0        1
H       -1.07366200      -4.60845200       1.81260300  F        0        1
41
Properties=species:S:1:pos:R:3:is_solvent:L:1:group_label:I:1:tags:I:1 Coordinates=T from=T ORCA-job=T Li1EC4_r07_charge_1_spin_1_liquid_t_traj_2_frame_0003=T E=T -1378.037228537466=T solvent_indices_0based="_JSON [11, 12, 13, 14, 15, 16, 17, 18, 19, 20]" complex_indices_0based="_JSON [0, 1, 2, 3, 4, 5, 6, 7, 8, 9, 10, 21, 22, 23, 24, 25, 26, 27, 28, 29, 30, 31, 32, 33, 34, 35, 36, 37, 38, 39, 40]" complex_indices_1based="_JSON [1, 2, 3, 4, 5, 6, 7, 8, 9, 10, 11, 22, 23, 24, 25, 26, 27, 28, 29, 30, 31, 32, 33, 34, 35, 36, 37, 38, 39, 40, 41]" pbc="F F F"
Li      -1.06845872       0.88219659       0.55679591  F        0        1
C        3.42452503       1.30252077       0.44927355  F        0        1
C        3.59231831       1.70067716      -1.01688801  F        0        1
O        2.24647259       1.62711169      -1.52406782  F        0        1
C        1.39793661       1.57043447      -0.50483664  F        0        1
O        2.01751002       1.50435535       0.67108642  F        0        1
O        0.19766882       1.60199639      -0.62807344  F        0        1
H        3.64737525       0.25070827       0.62785669  F        0        1
H        3.97615255       1.93402186       1.14247295  F        0        1
H        3.94903034       2.72343027      -1.14658073  F        0        1
H        4.20848454       1.00768934      -1.58473470  F        0        1
C        4.16039870      -2.79846870      -1.83893067  T        1        2
C        3.06830223      -3.83013609      -2.11085396  T        1        2
O        1.95751566      -3.32334416      -1.34948023  T        1        2
C        2.16733583      -2.02602488      -1.06015926  T        1        2
O        3.40798867      -1.64632068      -1.41431873  T        1        2
O        1.35856762      -1.30924736      -0.55146711  T        1        2
H        4.82993041      -3.09044517      -1.02800929  T        1        2
H        4.73620761      -2.52938509      -2.72206272  T        1        2
H        2.77609106      -3.87052292      -3.16147315  T        1        2
H        3.31068191      -4.82784380      -1.75064149  T        1        2
C       -3.98570025       4.74696612       1.25041195  F        0        1
C       -5.14444751       4.09639186       0.49316415  F        0        1
O       -4.72859262       2.71971030       0.39436760  F        0        1
C       -3.43194350       2.63112427       0.66896004  F        0        1
O       -2.92091889       3.78875902       1.08581814  F        0        1
O       -2.79389964       1.61534706       0.55617732  F        0        1
H       -3.66346466       5.69515627       0.82555228  F        0        1
H       -4.17961786       4.85846030       2.31788717  F        0        1
H       -6.09190313       4.13066881       1.02651162  F        0        1
H       -5.26712195       4.48648889      -0.51795237  F        0        1
C       -0.68170664      -3.98309753       0.99778860  F        0        1
C       -1.36211314      -3.39455244      -0.24095841  F        0        1
O       -1.56568963      -2.02037984       0.13058677  F        0        1
C       -0.81451172      -1.73601730       1.19495613  F        0        1
O       -0.24651208      -2.81456206       1.71799588  F        0        1
O       -0.68708111      -0.62075425       1.63625666  F        0        1
H       -1.36232013      -4.54360036       1.63954221  F        0        1
H        0.19423229      -4.58330128       0.76054506  F        0        1
H       -0.72169921      -3.41641112      -1.12210926  F        0        1
H       -2.33123929      -3.83815648      -0.45988595  F        0        1
41
Properties=species:S:1:pos:R:3:is_solvent:L:1:group_label:I:1:tags:I:1 Coordinates=T from=T ORCA-job=T Li1EC4_r07_charge_1_spin_1_liquid_t_traj_2_frame_0003=T E=T -1378.037228537466=T solvent_indices_0based="_JSON [11, 12, 13, 14, 15, 16, 17, 18, 19, 20]" complex_indices_0based="_JSON [0, 1, 2, 3, 4, 5, 6, 7, 8, 9, 10, 21, 22, 23, 24, 25, 26, 27, 28, 29, 30, 31, 32, 33, 34, 35, 36, 37, 38, 39, 40]" complex_indices_1based="_JSON [1, 2, 3, 4, 5, 6, 7, 8, 9, 10, 11, 22, 23, 24, 25, 26, 27, 28, 29, 30, 31, 32, 33, 34, 35, 36, 37, 38, 39, 40, 41]" pbc="F F F"
Li      -1.06845900       0.88219700       0.55679600  F        0        1
C        3.42452500       1.30252100       0.44927400  F        0        1
C        3.59231800       1.70067700      -1.01688800  F        0        1
O        2.24647300       1.62711200      -1.52406800  F        0        1
C        1.39793700       1.57043400      -0.50483700  F        0        1
O        2.01751000       1.50435500       0.67108600  F        0        1
O        0.19766900       1.60199600      -0.62807300  F        0        1
H        3.64737500       0.25070800       0.62785700  F        0        1
H        3.97615300       1.93402200       1.14247300  F        0        1
H        3.94903000       2.72343000      -1.14658100  F        0        1
H        4.20848500       1.00768900      -1.58473500  F        0        1
C        4.16039900      -2.79846900      -1.83893100  T        1        2
C        3.06830200      -3.83013600      -2.11085400  T        1        2
O        1.95751600      -3.32334400      -1.34948000  T        1        2
C        2.16733600      -2.02602500      -1.06015900  T        1        2
O        3.40798900      -1.64632100      -1.41431900  T        1        2
O        1.35856800      -1.30924700      -0.55146700  T        1        2
H        4.82993000      -3.09044500      -1.02800900  T        1        2
H        4.73620800      -2.52938500      -2.72206300  T        1        2
H        2.77609100      -3.87052300      -3.16147300  T        1        2
H        3.31068200      -4.82784400      -1.75064100  T        1        2
C       -3.98570000       4.74696600       1.25041200  F        0        1
C       -5.14444800       4.09639200       0.49316400  F        0        1
O       -4.72859300       2.71971000       0.39436800  F        0        1
C       -3.43194400       2.63112400       0.66896000  F        0        1
O       -2.92091900       3.78875900       1.08581800  F        0        1
O       -2.79390000       1.61534700       0.55617700  F        0        1
H       -3.66346500       5.69515600       0.82555200  F        0        1
H       -4.17961800       4.85846000       2.31788700  F        0        1
H       -6.09190300       4.13066900       1.02651200  F        0        1
H       -5.26712200       4.48648900      -0.51795200  F        0        1
C       -0.68170700      -3.98309800       0.99778900  F        0        1
C       -1.36211300      -3.39455200      -0.24095800  F        0        1
O       -1.56569000      -2.02038000       0.13058700  F        0        1
C       -0.81451200      -1.73601700       1.19495600  F        0        1
O       -0.24651200      -2.81456200       1.71799600  F        0        1
O       -0.68708100      -0.62075400       1.63625700  F        0        1
H       -1.36232000      -4.54360000       1.63954200  F        0        1
H        0.19423200      -4.58330100       0.76054500  F        0        1
H       -0.72169900      -3.41641100      -1.12210900  F        0        1
H       -2.33123900      -3.83815600      -0.45988600  F        0        1
41
Properties=species:S:1:pos:R:3:is_solvent:L:1:group_label:I:1:tags:I:1 Coordinates=T from=T ORCA-job=T Li1EC4_r07_charge_1_spin_1_liquid_t_traj_2_frame_0004=T E=T -1378.039315110234=T solvent_indices_0based="_JSON [11, 12, 13, 14, 15, 16, 17, 18, 19, 20]" complex_indices_0based="_JSON [0, 1, 2, 3, 4, 5, 6, 7, 8, 9, 10, 21, 22, 23, 24, 25, 26, 27, 28, 29, 30, 31, 32, 33, 34, 35, 36, 37, 38, 39, 40]" complex_indices_1based="_JSON [1, 2, 3, 4, 5, 6, 7, 8, 9, 10, 11, 22, 23, 24, 25, 26, 27, 28, 29, 30, 31, 32, 33, 34, 35, 36, 37, 38, 39, 40, 41]" pbc="F F F"
Li      -1.21589948       0.88705586       0.26658622  F        0        1
C        3.29997599       1.04992779       0.49397536  F        0        1
C        3.61606110       1.31387663      -0.97600715  F        0        1
O        2.32788258       1.17080333      -1.60807425  F        0        1