41
Properties=species:S:1:pos:R:3:is_solvent:L:1:group_label:I:1:tags:I:1 Coordinates=T from=T ORCA-job=T Li1EC4_r08_charge_1_spin_1_liquid_t_traj_2_frame_0000=T E=T -1378.044412047038=T solvent_indices_0based="_JSON [11, 12, 13, 14, 15, 16, 17, 18, 19, 20]" complex_indices_0based="_JSON [0, 1, 2, 3, 4, 5, 6, 7, 8, 9, 10, 21, 22, 23, 24, 25, 26, 27, 28, 29, 30, 31, 32, 33, 34, 35, 36, 37, 38, 39, 40]" complex_indices_1based="_JSON [1, 2, 3, 4, 5, 6, 7, 8, 9, 10, 11, 22, 23, 24, 25, 26, 27, 28, 29, 30, 31, 32, 33, 34, 35, 36, 37, 38, 39, 40, 41]" pbc="F F F"
Li       0.19265115      -0.22023125       0.16990050  F        0        1
C        4.61024590      -1.18097502       2.46397433  F        0        1
C        4.35324790       0.30422595       2.20662891  F        0        1
O        3.06532177       0.29786783       1.56400596  F        0        1
C        2.77863038      -0.94010111       1.15716715  F        0        1
O        3.68879484      -1.82542462       1.56454633  F        0        1
O        1.81575271      -1.22765488       0.49568939  F        0        1
H        5.61864431      -1.50225640       2.21196032  F        0        1
H        4.36190137      -1.48552007       3.48167076  F        0        1
H        4.28178559       0.89851107       3.11515714  F        0        1
H        5.07494806       0.75033590       1.52087027  F        0        1
C       -1.85018722      -4.80530969      -0.59129170  T        1        2
C       -1.05021206      -4.61520078       0.69753605  T        1        2
O       -0.90425707      -3.18506306       0.77069827  T        1        2
C       -1.16661630      -2.65415958      -0.42566247  T        1        2
O       -1.64300920      -3.55919852      -1.28146952  T        1        2
O       -1.00015491      -1.49515164      -0.70159022  T        1        2
H       -1.48114354      -5.61277759      -1.22017296  T        1        2
H       -2.92023789      -4.92525101      -0.41542656  T        1        2
H       -1.57181904      -4.95451260       1.58998758  T        1        2
H       -0.05374209      -5.05690781       0.65181451  T        1        2
C       -3.10536493       2.47241637       2.08684597  F        0        1
C       -2.31758006       2.84991352       3.34224754  F        0        1
O       -1.27631262       1.85629253       3.37797813  F        0        1
C       -1.19702394       1.25645537       2.19003624  F        0        1
O       -2.18169371       1.63183254       1.37114329  F        0        1
O       -0.33940464       0.46542069       1.89695115  F        0        1
H       -4.00084291       1.88826585       2.30355847  F        0        1
H       -3.35548028       3.32336631       1.45672454  F        0        1
H       -1.84833593       3.83214418       3.27120604  F        0        1
H       -2.89527850       2.77579149       4.26115769  F        0        1
C        0.79167982       0.88526415      -4.36850171  F        0        1
C        0.02409763       2.20594773      -4.29764790  F        0        1
O        0.00558541       2.48991520      -2.88609494  F        0        1
C        0.32236383       1.38521072      -2.21009238  F        0        1
O        0.70963192       0.39616813      -3.01746491  F        0        1
O        0.26944539       1.29650026      -1.01161485  F        0        1
H        0.33608408       0.15044822      -5.02896372  F        0        1
H        1.84492517       1.01618128      -4.62089777  F        0        1
H        0.51944566       3.02935893      -4.80778372  F        0        1
H       -1.00766558       2.11726784      -4.64068783  F        0        1
41
Properties=species:S:1:pos:R:3:is_solvent:L:1:group_label:I:1:tags:I:1 Coordinates=T from=T ORCA-job=T Li1EC4_r08_charge_1_spin_1_liquid_t_traj_2_frame_0000=T E=T -1378.044412047038=T solvent_indices_0based="_JSON [11, 12, 13, 14, 15, 16, 17, 18, 19, 20]" complex_indices_0based="_JSON [0, 1, 2, 3, 4, 5, 6, 7, 8, 9, 10, 21, 22, 23, 24, 25, 26, 27, 28, 29, 30, 31, 32, 33, 34, 35, 36, 37, 38, 39, 40]" complex_indices_1based="_JSON [1, 2, 3, 4, 5, 6, 7, 8, 9, 10, 11, 22, 23, 24, 25, 26, 27, 28, 29, 30, 31, 32, 33, 34, 35, 36, 37, 38, 39, 40, 41]" pbc="F F F"
Li       0.19265100      -0.22023100       0.16990000  F        0        1
C        4.61024600      -1.18097500       2.46397400  F        0        1
C        4.35324800       0.30422600       2.20662900  F        0        1
O        3.06532200       0.29786800       1.56400600  F        0        1
C        2.77863000      -0.94010100       1.15716700  F        0        1
O        3.68879500      -1.82542500       1.56454600  F        0        1
O        1.81575300      -1.22765500       0.49568900  F        0        1
H        5.61864400      -1.50225600       2.21196000  F        0        1
H        4.36190100      -1.48552000       3.48167100  F        0        1
H        4.28178600       0.89851100       3.11515700  F        0        1
H        5.07494800       0.75033600       1.52087000  F        0        1
C       -1.85018700      -4.80531000      -0.59129200  T        1        2
C       -1.05021200      -4.61520100       0.69753600  T        1        2
O       -0.90425700      -3.18506300       0.77069800  T        1        2
C       -1.16661600      -2.65416000      -0.42566200  T        1        2
O       -1.64300900      -3.55919900      -1.28147000  T        1        2
O       -1.00015500      -1.49515200      -0.70159000  T        1        2
H       -1.48114400      -5.61277800      -1.22017300  T        1        2
H       -2.92023800      -4.92525100      -0.41542700  T        1        2
H       -1.57181900      -4.95451300       1.58998800  T        1        2
H       -0.05374200      -5.05690800       0.65181500  T        1        2
C       -3.10536500       2.47241600       2.08684600  F        0        1
C       -2.31758000       2.84991400       3.34224800  F        0        1
O       -1.27631300       1.85629300       3.37797800  F        0        1
C       -1.19702400       1.25645500       2.19003600  F        0        1
O       -2.18169400       1.63183300       1.37114300  F        0        1
O       -0.33940500       0.46542100       1.89695100  F        0        1
H       -4.00084300       1.88826600       2.30355800  F        0        1
H       -3.35548000       3.32336600       1.45672500  F        0        1
H       -1.84833600       3.83214400       3.27120600  F        0        1
H       -2.89527900       2.77579100       4.26115800  F        0        1
C        0.79168000       0.88526400      -4.36850200  F        0        1
C        0.02409800       2.20594800      -4.29764800  F        0        1
O        0.00558500       2.48991500      -2.88609500  F        0        1
C        0.32236400       1.38521100      -2.21009200  F        0        1
O        0.70963200       0.39616800      -3.01746500  F        0        1
O        0.26944500       1.29650000      -1.01161500  F        0        1
H        0.33608400       0.15044800      -5.02896400  F        0        1
H        1.84492500       1.01618100      -4.62089800  F        0        1
H        0.51944600       3.02935900      -4.80778400  F        0        1
H       -1.00766600       2.11726800      -4.64068800  F        0        1
41
Properties=species:S:1:pos:R:3:is_solvent:L:1:group_label:I:1:tags:I:1 Coordinates=T from=T ORCA-job=T Li1EC4_r08_charge_1_spin_1_liquid_t_traj_2_frame_0001=T E=T -1378.038226392616=T solvent_indices_0based="_JSON [11, 12, 13, 14, 15, 16, 17, 18, 19, 20]" complex_indices_0based="_JSON [0, 1, 2, 3, 4, 5, 6, 7, 8, 9, 10, 21, 22, 23, 24, 25, 26, 27, 28, 29, 30, 31, 32, 33, 34, 35, 36, 37, 38, 39, 40]" complex_indices_1based="_JSON [1, 2, 3, 4, 5, 6, 7, 8, 9, 10, 11, 22, 23, 24, 25, 26, 27, 28, 29, 30, 31, 32, 33, 34, 35, 36, 37, 38, 39, 40, 41]" pbc="F F F"
Li       0.75565716       0.21156200       0.23959633  F        0        1
C        5.47689903      -1.28956908       1.72101762  F        0        1
C        5.34478115       0.23438263       1.74515060  F        0        1
O        3.96263954       0.44006103       1.39404458  F        0        1
C        3.46288830      -0.68709312       0.88546368  F        0        1
O        4.32164698      -1.69995263       0.96452256  F        0        1
O        2.36238428      -0.77922530       0.40709908  F        0        1
H        6.36751538      -1.64394721       1.20645602  F        0        1
H        5.41144719      -1.74000939       2.71222602  F        0        1
H        5.51907292       0.67271343       2.72546837  F        0        1
H        5.96348337       0.72956333       0.99573580  F        0        1
C       -2.31108729      -4.14528526       0.24040120  T        1        2
C       -2.71293447      -3.14805951       1.32553801  T        1        2
O       -2.36373900      -1.88352622       0.73514743  T        1        2
C       -1.49361368      -2.09207918      -0.27482339  T        1        2
O       -1.37273952      -3.39491229      -0.54804806  T        1        2
O       -0.91131020      -1.21880061      -0.84866879  T        1        2
H       -1.80917900      -5.03118395       0.62383134  T        1        2
H       -3.14574570      -4.43464413      -0.40035532  T        1        2
H       -3.77968128      -3.14886748       1.54154967  T        1        2
H       -2.14113654      -3.26534030       2.24774909  T        1        2
C       -3.41311535       1.32509076       1.74934816  F        0        1
C       -3.28666671       0.85028799       3.19631150  F        0        1
O       -2.01576935       0.17150940       3.19669081  F        0        1
C       -1.33285623       0.52663425       2.10914006  F        0        1
O       -2.05168348       1.28729838       1.28761306  F        0        1
O       -0.19157216       0.19888597       1.90169918  F        0        1
H       -3.99984210       0.64771122       1.12742898  F        0        1
H       -3.78237688       2.34386561       1.65350825  F        0        1
H       -3.23513474       1.67125825       3.91288426  F        0        1
H       -4.05567992       0.14107061       3.49542552  F        0        1
C        0.96274501       0.89541001      -4.33536772  F        0        1
C       -0.06076265       2.03397594      -4.35471178  F        0        1
O       -0.08290766       2.47359571      -2.98366564  F        0        1
C        0.51727136       1.56616732      -2.21778447  F        0        1
O        1.08548931       0.59634655      -2.93309081  F        0        1
O        0.54837386       1.62148053      -1.01473919  F        0        1
H        0.62518874      -0.00243008      -4.84899031  F        0        1
H        1.94330018       1.19520481      -4.70703098  F        0        1
H        0.23242833       2.87498863      -4.97964347  F        0        1
H       -1.06471931       1.70078472      -4.62004042  F        0        1
41
Properties=species:S:1:pos:R:3:is_solvent:L:1:group_label:I:1:tags:I:1 Coordinates=T from=T ORCA-job=T Li1EC4_r08_charge_1_spin_1_liquid_t_traj_2_frame_0001=T E=T -1378.038226392616=T solvent_indices_0based="_JSON [11, 12, 13, 14, 15, 16, 17, 18, 19, 20]" complex_indices_0based="_JSON [0, 1, 2, 3, 4, 5, 6, 7, 8, 9, 10, 21, 22, 23, 24, 25, 26, 27, 28, 29, 30, 31, 32, 33, 34, 35, 36, 37, 38, 39, 40]" complex_indices_1based="_JSON [1, 2, 3, 4, 5, 6, 7, 8, 9, 10, 11, 22, 23, 24, 25, 26, 27, 28, 29, 30, 31, 32, 33, 34, 35, 36, 37, 38, 39, 40, 41]" pbc="F F F"
Li       0.75565700       0.21156200       0.23959600  F        0        1
C        5.47689900      -1.28956900       1.72101800  F        0        1
C        5.34478100       0.23438300       1.74515100  F        0        1
O        3.96264000       0.44006100       1.39404500  F        0        1
C        3.46288800      -0.68709300       0.88546400  F        0        1
O        4.32164700      -1.69995300       0.96452300  F        0        1
O        2.36238400      -0.77922500       0.40709900  F        0        1
H        6.36751500      -1.64394700       1.20645600  F        0        1
H        5.41144700      -1.74000900       2.71222600  F        0        1
H        5.51907300       0.67271300       2.72546800  F        0        1
H        5.96348300       0.72956300       0.99573600  F        0        1
C       -2.31108700      -4.14528500       0.24040100  T        1        2
C       -2.71293400      -3.14806000       1.32553800  T        1        2
O       -2.36373900      -1.88352600       0.73514700  T        1        2
C       -1.49361400      -2.09207900      -0.27482300  T        1        2
O       -1.37274000      -3.39491200      -0.54804800  T        1        2
O       -0.91131000      -1.21880100      -0.84866900  T        1        2
H       -1.80917900      -5.03118400       0.62383100  T        1        2
H       -3.14574600      -4.43464400      -0.40035500  T        1        2
H       -3.77968100      -3.14886700       1.54155000  T        1        2
H       -2.14113700      -3.26534000       2.24774900  T        1        2
C       -3.41311500       1.32509100       1.74934800  F        0        1
C       -3.28666700       0.85028800       3.19631200  F        0        1
O       -2.01576900       0.17150900       3.19669100  F        0        1
C       -1.33285600       0.52663400       2.10914000  F        0        1
O       -2.05168300       1.28729800       1.28761300  F        0        1
O       -0.19157200       0.19888600       1.90169900  F        0        1
H       -3.99984200       0.64771100       1.12742900  F        0        1
H       -3.78237700       2.34386600       1.65350800  F        0        1
H       -3.23513500       1.67125800       3.91288400  F        0        1
H       -4.05568000       0.14107100       3.49542600  F        0        1
C        0.96274500       0.89541000      -4.33536800  F        0        1
C       -0.06076300       2.03397600      -4.35471200  F        0        1
O       -0.08290800       2.47359600      -2.98366600  F        0        1
C        0.51727100       1.56616700      -2.21778400  F        0        1
O        1.08548900       0.59634700      -2.93309100  F        0        1
O        0.54837400       1.62148100      -1.01473900  F        0        1
H        0.62518900      -0.00243000      -4.84899000  F        0        1
H        1.94330000       1.19520500      -4.70703100  F        0        1
H        0.23242800       2.87498900      -4.97964300  F        0        1
H       -1.06471900       1.70078500      -4.62004000  F        0        1
41
Properties=species:S:1:pos:R:3:is_solvent:L:1:group_label:I:1:tags:I:1 Coordinates=T from=T ORCA-job=T Li1EC4_r08_charge_1_spin_1_liquid_t_traj_2_frame_0002=T E=T -1378.039346153255=T solvent_indices_0based="_JSON [11, 12, 13, 14, 15, 16, 17, 18, 19, 20]" complex_indices_0based="_JSON [0, 1, 2, 3, 4, 5, 6, 7, 8, 9, 10, 21, 22, 23, 24, 25, 26, 27, 28, 29, 30, 31, 32, 33, 34, 35, 36, 37, 38, 39, 40]" complex_indices_1based="_JSON [1, 2, 3, 4, 5, 6, 7, 8, 9, 10, 11, 22, 23, 24, 25, 26, 27, 28, 29, 30, 31, 32, 33, 34, 35, 36, 37, 38, 39, 40, 41]" pbc="F F F"
Li       0.36705442       0.94406230       1.39310402  F        0        1
C        4.26480109      -1.98316411       0.20745997  F        0        1
C        4.51933199      -0.47883541       0.29091328  F        0        1
O        3.35684936      -0.00530214       0.99935048  F        0        1
C        2.40524444      -0.92788583       0.93653254  F        0        1
O        2.83830125      -2.07239162       0.41660528  F        0        1
O        1.27232587      -0.75495983       1.32084785  F        0        1
H        4.49652528      -2.41489762      -0.76358757  F        0        1
H        4.75949764      -2.54662225       0.99950460  F        0        1
H        5.40416687      -0.21174482       0.86398137  F        0        1
H        4.53747723       0.00564091      -0.68606348  F        0        1
C       -0.48349950      -3.47067185       0.03691746  T        1        2
C       -1.24131067      -2.89300628       1.23600475  T        1        2
O       -1.71410637      -1.62915694       0.73760585  T        1        2
C       -1.03092864      -1.30338995      -0.37039249  T        1        2
O       -0.29301024      -2.32558627      -0.81258394  T        1        2
O       -1.08382566      -0.22712390      -0.89461148  T        1        2
H        0.49543374      -3.86635437       0.30021537  T        1        2
H       -1.05699864      -4.21556108      -0.51626958  T        1        2
H       -2.10101924      -3.48850682       1.53658583  T        1        2
H       -0.59325255      -2.69898377       2.09041496  T        1        2
C       -4.24154054       1.05066888       1.37071079  F        0        1
C       -4.44924866       0.45940494       2.76407553  F        0        1
O       -3.10081781       0.16745874       3.18487310  F        0        1
C       -2.25242335       0.83205413       2.40867189  F        0        1
O       -2.86224769       1.46236733       1.41094594  F        0        1
O       -1.05960006       0.86302008       2.59540669  F        0        1
H       -4.34898301       0.31410772       0.57308618  F        0        1
H       -4.85616318       1.92431237       1.16592958  F        0        1
H       -4.87981860       1.16913696       3.47170431  F        0        1
H       -5.01857891      -0.46746113       2.76791453  F        0        1
C        1.26699675       0.37335826      -3.03125034  F        0        1
C        0.50697356       1.63884280      -3.43595429  F        0        1
O        0.23712418       2.27318841      -2.17213184  F        0        1
C        0.92158840       1.67300516      -1.21445625  F        0        1
O        1.66378201       0.66003070      -1.67540728  F        0        1
O        0.90151231       2.00918530      -0.05543988  F        0        1
H        0.63229121      -0.51186013      -3.01298791  F        0        1
H        2.16359651       0.19614697      -3.62197620  F        0        1
H        1.09980148       2.32592246      -4.04059796  F        0        1
H       -0.44420502       1.43199185      -3.92157121  F        0        1
41
Properties=species:S:1:pos:R:3:is_solvent:L:1:group_label:I:1:tags:I:1 Coordinates=T from=T ORCA-job=T Li1EC4_r08_charge_1_spin_1_liquid_t_traj_2_frame_0002=T E=T -1378.039346153255=T solvent_indices_0based="_JSON [11, 12, 13, 14, 15, 16, 17, 18, 19, 20]" complex_indices_0based="_JSON [0, 1, 2, 3, 4, 5, 6, 7, 8, 9, 10, 21, 22, 23, 24, 25, 26, 27, 28, 29, 30, 31, 32, 33, 34, 35, 36, 37, 38, 39, 40]" complex_indices_1based="_JSON [1, 2, 3, 4, 5, 6, 7, 8, 9, 10, 11, 22, 23, 24, 25, 26, 27, 28, 29, 30, 31, 32, 33, 34, 35, 36, 37, 38, 39, 40, 41]" pbc="F F F"
Li       0.36705400       0.94406200       1.39310400  F        0        1
C        4.26480100      -1.98316400       0.20746000  F        0        1
C        4.51933200      -0.47883500       0.29091300  F        0        1
O        3.35684900      -0.00530200       0.99935000  F        0        1
C        2.40524400      -0.92788600       0.93653300  F        0        1
O        2.83830100      -2.07239200       0.41660500  F        0        1
O        1.27232600      -0.75496000       1.32084800  F        0        1
H        4.49652500      -2.41489800      -0.76358800  F        0        1
H        4.75949800      -2.54662200       0.99950500  F        0        1
H        5.40416700      -0.21174500       0.86398100  F        0        1
H        4.53747700       0.00564100      -0.68606300  F        0        1
C       -0.48349900      -3.47067200       0.03691700  T        1        2
C       -1.24131100      -2.89300600       1.23600500  T        1        2
O       -1.71410600      -1.62915700       0.73760600  T        1        2
C       -1.03092900      -1.30339000      -0.37039200  T        1        2
O       -0.29301000      -2.32558600      -0.81258400  T        1        2
O       -1.08382600      -0.22712400      -0.89461100  T        1        2
H        0.49543400      -3.86635400       0.30021500  T        1        2
H       -1.05699900      -4.21556100      -0.51627000  T        1        2
H       -2.10101900      -3.48850700       1.53658600  T        1        2
H       -0.59325300      -2.69898400       2.09041500  T        1        2
C       -4.24154100       1.05066900       1.37071100  F        0        1
C       -4.44924900       0.45940500       2.76407600  F        0        1
O       -3.10081800       0.16745900       3.18487300  F        0        1
C       -2.25242300       0.83205400       2.40867200  F        0        1
O       -2.86224800       1.46236700       1.41094600  F        0        1
O       -1.05960000       0.86302000       2.59540700  F        0        1
H       -4.34898300       0.31410800       0.57308600  F        0        1
H       -4.85616300       1.92431200       1.16593000  F        0        1
H       -4.87981900       1.16913700       3.47170400  F        0        1
H       -5.01857900      -0.46746100       2.76791500  F        0        1
C        1.26699700       0.37335800      -3.03125000  F        0        1
C        0.50697400       1.63884300      -3.43595400  F        0        1
O        0.23712400       2.27318800      -2.17213200  F        0        1
C        0.92158800       1.67300500      -1.21445600  F        0        1
O        1.66378200       0.66003100      -1.67540700  F        0        1
O        0.90151200       2.00918500      -0.05544000  F        0        1
H        0.63229100      -0.51186000      -3.01298800  F        0        1
H        2.16359700       0.19614700      -3.62197600  F        0        1
H        1.09980100       2.32592200      -4.04059800  F        0        1
H       -0.44420500       1.43199200      -3.92157100  F        0        1
41
Properties=species:S:1:pos:R:3:is_solvent:L:1:group_label:I:1:tags:I:1 Coordinates=T from=T ORCA-job=T Li1EC4_r08_charge_1_spin_1_liquid_t_traj_2_frame_0003=T E=T -1378.037513829209=T solvent_indices_0based="_JSON [11, 12, 13, 14, 15, 16, 17, 18, 19, 20]" complex_indices_0based="_JSON [0, 1, 2, 3, 4, 5, 6, 7, 8, 9, 10, 21, 22, 23, 24, 25, 26, 27, 28, 29, 30, 31, 32, 33, 34, 35, 36, 37, 38, 39, 40]" complex_indices_1based="_JSON [1, 2, 3, 4, 5, 6, 7, 8, 9, 10, 11, 22, 23, 24, 25, 26, 27, 28, 29, 30, 31, 32, 33, 34, 35, 36, 37, 38, 39, 40, 41]" pbc="F F F"
Li       1.52690391       0.03109188       0.46047362  F        0        1
C        6.55670046      -0.05599737       1.78354644  F        0        1
C        5.87060413       1.14834083       2.43092329  F        0        1
O        4.48514695       0.94995801       2.08469236  F        0        1
C        4.39971506       0.04357540       1.11257136  F        0        1
O        5.57363318      -0.51191430       0.83328613  F        0        1
O        3.37530426      -0.24140552       0.54591521  F        0        1
H        7.46531766       0.19657057       1.24136353  F        0        1
H        6.75084005      -0.86715259       2.48624361  F        0        1
H        5.95358792       1.16925450       3.51542538  F        0        1
H        6.19232409       2.10198001       2.01073264  F        0        1
C       -4.05670559      -3.10466029      -1.55473636  T        1        2
C       -4.28578157      -3.09420610      -0.04296136  T        1        2
O       -3.43978387      -2.01968876       0.40363393  T        1        2
C       -2.56350162      -1.70104538      -0.56261275  T        1        2
O       -2.82952195      -2.36890646      -1.69967054  T        1        2
O       -1.66863617      -0.91748820      -0.43419150  T        1        2
H       -3.91231529      -4.10189237      -1.96542149  T        1        2
H       -4.83977066      -2.58151096      -2.10582856  T        1        2
H       -5.31199901      -2.86723175       0.23898233  T        1        2
H       -3.95641302      -4.01362086       0.44302953  T        1        2
C       -2.53685501       1.08118250       2.15239470  F        0        1
C       -2.72486938      -0.12274689       3.07451635  F        0        1
O       -1.54347198      -0.90579793       2.81758632  F        0        1
C       -0.65514059      -0.15697717       2.17375153  F        0        1
O       -1.12365770       1.05517214       1.88920489  F        0        1
O        0.46122125      -0.52810591       1.90308171  F        0        1
H       -3.05779168       0.97022644       1.20101095  F        0        1
H       -2.78285031       2.03454263       2.61485965  F        0        1
H       -2.73331729       0.14301656       4.13254504  F        0        1
H       -3.59315983      -0.72810193       2.82694352  F        0        1
C       -0.25858299      -0.93762207      -3.67405215  F        0        1
C       -0.91787765       0.42032635      -3.92730780  F        0        1
O       -0.63731239       1.14920989      -2.71911536  F        0        1
C        0.27929883       0.49857979      -2.01268553  F        0        1
O        0.61885977      -0.66390295      -2.56632784  F        0        1
O        0.76768464       0.92310261      -0.99555087  F        0        1
H       -0.96853100      -1.70260463      -3.36160403  F        0        1
H        0.34401615      -1.29206506      -4.50788081  F        0        1
H       -0.47637181       0.96337682      -4.76383516  F        0        1
H       -1.99770422       0.36109555      -4.04885797  F        0        1
41
Properties=species:S:1:pos:R:3:is_solvent:L:1:group_label:I:1:tags:I:1 Coordinates=T from=T ORCA-job=T Li1EC4_r08_charge_1_spin_1_liquid_t_traj_2_frame_0003=T E=T -1378.037513829209=T solvent_indices_0based="_JSON [11, 12, 13, 14, 15, 16, 17, 18, 19, 20]" complex_indices_0based="_JSON [0, 1, 2, 3, 4, 5, 6, 7, 8, 9, 10, 21, 22, 23, 24, 25, 26, 27, 28, 29, 30, 31, 32, 33, 34, 35, 36, 37, 38, 39, 40]" complex_indices_1based="_JSON [1, 2, 3, 4, 5, 6, 7, 8, 9, 10, 11, 22, 23, 24, 25, 26, 27, 28, 29, 30, 31, 32, 33, 34, 35, 36, 37, 38, 39, 40, 41]" pbc="F F F"
Li       1.52690400       0.03109200       0.46047400  F        0        1
C        6.55670000      -0.05599700       1.78354600  F        0        1
C        5.87060400       1.14834100       2.43092300  F        0        1
O        4.48514700       0.94995800       2.08469200  F        0        1
C        4.39971500       0.04357500       1.11257100  F        0        1
O        5.57363300      -0.51191400       0.83328600  F        0        1
O        3.37530400      -0.24140600       0.54591500  F        0        1
H        7.46531800       0.19657100       1.24136400  F        0        1
H        6.75084000      -0.86715300       2.48624400  F        0        1
H        5.95358800       1.16925400       3.51542500  F        0        1
H        6.19232400       2.10198000       2.01073300  F        0        1
C       -4.05670600      -3.10466000      -1.55473600  T        1        2
C       -4.28578200      -3.09420600      -0.04296100  T        1        2
O       -3.43978400      -2.01968900       0.40363400  T        1        2
C       -2.56350200      -1.70104500      -0.56261300  T        1        2
O       -2.82952200      -2.36890600      -1.69967100  T        1        2
O       -1.66863600      -0.91748800      -0.43419200  T        1        2
H       -3.91231500      -4.10189200      -1.96542100  T        1        2
H       -4.83977100      -2.58151100      -2.10582900  T        1        2
H       -5.31199900      -2.86723200       0.23898200  T        1        2
H       -3.95641300      -4.01362100       0.44303000  T        1        2
C       -2.53685500       1.08118200       2.15239500  F        0        1
C       -2.72486900      -0.12274700       3.07451600  F        0        1
O       -1.54347200      -0.90579800       2.81758600  F        0        1
C       -0.65514100      -0.15697700       2.17375200  F        0        1
O       -1.12365800       1.05517200       1.88920500  F        0        1
O        0.46122100      -0.52810600       1.90308200  F        0        1
H       -3.05779200       0.97022600       1.20101100  F        0        1
H       -2.78285000       2.03454300       2.61486000  F        0        1
H       -2.73331700       0.14301700       4.13254500  F        0        1
H       -3.59316000      -0.72810200       2.82694400  F        0        1
C       -0.25858300      -0.93762200      -3.67405200  F        0        1
C       -0.91787800       0.42032600      -3.92730800  F        0        1
O       -0.63731200       1.14921000      -2.71911500  F        0        1
C        0.27929900       0.49858000      -2.01268600  F        0        1
O        0.61886000      -0.66390300      -2.56632800  F        0        1
O        0.76768500       0.92310300      -0.99555100  F        0        1
H       -0.96853100      -1.70260500      -3.36160400  F        0        1
H        0.34401600      -1.29206500      -4.50788100  F        0        1
H       -0.47637200       0.96337700      -4.76383500  F        0        1
H       -1.99770400       0.36109600      -4.04885800  F        0        1
41
Properties=species:S:1:pos:R:3:is_solvent:L:1:group_label:I:1:tags:I:1 Coordinates=T from=T ORCA-job=T Li1EC4_r08_charge_1_spin_1_liquid_t_traj_2_frame_0004=T E=T -1378.038554526393=T solvent_indices_0based="_JSON [11, 12, 13, 14, 15, 16, 17, 18, 19, 20]" complex_indices_0based="_JSON [0, 1, 2, 3, 4, 5, 6, 7, 8, 9, 10, 21, 22, 23, 24, 25, 26, 27, 28, 29, 30, 31, 32, 33, 34, 35, 36, 37, 38, 39, 40]" complex_indices_1based="_JSON [1, 2, 3, 4, 5, 6, 7, 8, 9, 10, 11, 22, 23, 24, 25, 26, 27, 28, 29, 30, 31, 32, 33, 34, 35, 36, 37, 38, 39, 40, 41]" pbc="F F F"
Li       1.60333572       0.26393252       0.45426717  F        0        1
C        6.73317331       0.56522072       1.46999228  F        0        1
C        6.03307248       1.57003663       2.38617769  F        0        1
O        4.63664162       1.31216946       2.13102784  F        0        1