41
Properties=species:S:1:pos:R:3:tags:I:1:is_solvent:L:1:group_label:I:1 Coordinates=T from=T ORCA-job=T Li1EC4_r01_charge_1_spin_1_liquid_t_traj_4_frame_0000=T E=T -1378.044624742213=T solvent_indices_0based="_JSON [31, 32, 33, 34, 35, 36, 37, 38, 39, 40]" complex_indices_0based="_JSON [0, 1, 2, 3, 4, 5, 6, 7, 8, 9, 10, 11, 12, 13, 14, 15, 16, 17, 18, 19, 20, 21, 22, 23, 24, 25, 26, 27, 28, 29, 30]" complex_indices_1based="_JSON [1, 2, 3, 4, 5, 6, 7, 8, 9, 10, 11, 12, 13, 14, 15, 16, 17, 18, 19, 20, 21, 22, 23, 24, 25, 26, 27, 28, 29, 30, 31]" pbc="F F F"
Li       0.01459529      -0.04566467      -0.04614508        1  F        0
C        4.05813818       0.83248585      -2.24818596        1  F        0
C        3.74323492       2.28710521      -2.60318163        1  F        0
O        2.66354035       2.60996474      -1.70760714        1  F        0
C        2.16220497       1.48605824      -1.19520732        1  F        0
O        2.88003714       0.41453321      -1.53499095        1  F        0
O        1.17910364       1.44861552      -0.50269433        1  F        0
H        4.18181260       0.18812205      -3.11613998        1  F        0
H        4.91515916       0.73152289      -1.58081735        1  F        0
H        4.56679737       2.97177372      -2.41121177        1  F        0
H        3.38531452       2.40866193      -3.62640924        1  F        0
C       -3.38639032       3.62640565       0.75461898        1  F        0
C       -2.66551415       3.65049258      -0.59314968        1  F        0
O       -2.06510576       2.34338203      -0.65260752        1  F        0
C       -2.04580272       1.81343264       0.57153955        1  F        0
O       -2.72407768       2.55284867       1.44910900        1  F        0
O       -1.48756546       0.78538396       0.85395423        1  F        0
H       -3.26331069       4.53898437       1.33399016        1  F        0
H       -4.44485659       3.37621927       0.66822240        1  F        0
H       -3.33290982       3.76274619      -1.44497136        1  F        0
H       -1.86808748       4.39365836      -0.63828509        1  F        0
C       -2.17640786      -3.82927804      -1.69430791        1  F        0
C       -1.28235273      -4.01821369      -2.92137277        1  F        0
O       -0.64121030      -2.73622403      -3.05222824        1  F        0
C       -0.80085213      -2.04445479      -1.92436441        1  F        0
O       -1.61754330      -2.66011386      -1.06799568        1  F        0
O       -0.27209560      -0.98502691      -1.71024979        1  F        0
H       -3.21493194      -3.61578493      -1.95118487        1  F        0
H       -2.12796880      -4.65479418      -0.98718120        1  F        0
H       -0.50880809      -4.77297245      -2.77345604        1  F        0
H       -1.83387383      -4.22259346      -3.83675606        1  F        0
C        0.76545619      -0.42050878       4.48875624        2  T        1
C        0.98848596      -1.93029074       4.57190056        2  T        1
O        0.70563462      -2.36643925       3.22920101        2  T        1
C        0.72686066      -1.31391137       2.41131133        2  T        1
O        0.86747966      -0.16498423       3.07586892        2  T        1
O        0.63523804      -1.39485004       1.21444856        2  T        1
H       -0.22902499      -0.11661756       4.81899465        2  T        1
H        1.52659701       0.16391142       5.00134680        2  T        1
H        2.01991482      -2.19669157       4.80796516        2  T        1
H        0.30592418      -2.43807715       5.25002149        2  T        1
41
Properties=species:S:1:pos:R:3:tags:I:1:is_solvent:L:1:group_label:I:1 Coordinates=T from=T ORCA-job=T Li1EC4_r01_charge_1_spin_1_liquid_t_traj_4_frame_0000=T E=T -1378.044624742213=T solvent_indices_0based="_JSON [31, 32, 33, 34, 35, 36, 37, 38, 39, 40]" complex_indices_0based="_JSON [0, 1, 2, 3, 4, 5, 6, 7, 8, 9, 10, 11, 12, 13, 14, 15, 16, 17, 18, 19, 20, 21, 22, 23, 24, 25, 26, 27, 28, 29, 30]" complex_indices_1based="_JSON [1, 2, 3, 4, 5, 6, 7, 8, 9, 10, 11, 12, 13, 14, 15, 16, 17, 18, 19, 20, 21, 22, 23, 24, 25, 26, 27, 28, 29, 30, 31]" pbc="F F F"
Li       0.01459500      -0.04566500      -0.04614500        1  F        0
C        4.05813800       0.83248600      -2.24818600        1  F        0
C        3.74323500       2.28710500      -2.60318200        1  F        0
O        2.66354000       2.60996500      -1.70760700        1  F        0
C        2.16220500       1.48605800      -1.19520700        1  F        0
O        2.88003700       0.41453300      -1.53499100        1  F        0
O        1.17910400       1.44861600      -0.50269400        1  F        0
H        4.18181300       0.18812200      -3.11614000        1  F        0
H        4.91515900       0.73152300      -1.58081700        1  F        0
H        4.56679700       2.97177400      -2.41121200        1  F        0
H        3.38531500       2.40866200      -3.62640900        1  F        0
C       -3.38639000       3.62640600       0.75461900        1  F        0
C       -2.66551400       3.65049300      -0.59315000        1  F        0
O       -2.06510600       2.34338200      -0.65260800        1  F        0
C       -2.04580300       1.81343300       0.57154000        1  F        0
O       -2.72407800       2.55284900       1.44910900        1  F        0
O       -1.48756500       0.78538400       0.85395400        1  F        0
H       -3.26331100       4.53898400       1.33399000        1  F        0
H       -4.44485700       3.37621900       0.66822200        1  F        0
H       -3.33291000       3.76274600      -1.44497100        1  F        0
H       -1.86808700       4.39365800      -0.63828500        1  F        0
C       -2.17640800      -3.82927800      -1.69430800        1  F        0
C       -1.28235300      -4.01821400      -2.92137300        1  F        0
O       -0.64121000      -2.73622400      -3.05222800        1  F        0
C       -0.80085200      -2.04445500      -1.92436400        1  F        0
O       -1.61754300      -2.66011400      -1.06799600        1  F        0
O       -0.27209600      -0.98502700      -1.71025000        1  F        0
H       -3.21493200      -3.61578500      -1.95118500        1  F        0
H       -2.12796900      -4.65479400      -0.98718100        1  F        0
H       -0.50880800      -4.77297200      -2.77345600        1  F        0
H       -1.83387400      -4.22259300      -3.83675600        1  F        0
C        0.76545600      -0.42050900       4.48875600        2  T        1
C        0.98848600      -1.93029100       4.57190100        2  T        1
O        0.70563500      -2.36643900       3.22920100        2  T        1
C        0.72686100      -1.31391100       2.41131100        2  T        1
O        0.86748000      -0.16498400       3.07586900        2  T        1
O        0.63523800      -1.39485000       1.21444900        2  T        1
H       -0.22902500      -0.11661800       4.81899500        2  T        1
H        1.52659700       0.16391100       5.00134700        2  T        1
H        2.01991500      -2.19669200       4.80796500        2  T        1
H        0.30592400      -2.43807700       5.25002100        2  T        1
41
Properties=species:S:1:pos:R:3:tags:I:1:is_solvent:L:1:group_label:I:1 Coordinates=T from=T ORCA-job=T Li1EC4_r01_charge_1_spin_1_liquid_t_traj_4_frame_0001=T E=T -1378.038016093494=T solvent_indices_0based="_JSON [31, 32, 33, 34, 35, 36, 37, 38, 39, 40]" complex_indices_0based="_JSON [0, 1, 2, 3, 4, 5, 6, 7, 8, 9, 10, 11, 12, 13, 14, 15, 16, 17, 18, 19, 20, 21, 22, 23, 24, 25, 26, 27, 28, 29, 30]" complex_indices_1based="_JSON [1, 2, 3, 4, 5, 6, 7, 8, 9, 10, 11, 12, 13, 14, 15, 16, 17, 18, 19, 20, 21, 22, 23, 24, 25, 26, 27, 28, 29, 30, 31]" pbc="F F F"
Li      -0.22550243       0.31302995      -0.43269619        1  F        0
C        4.28190864      -0.15364254      -0.73879249        1  F        0
C        4.70719011       1.28768722      -0.46264971        1  F        0
O        3.46974143       1.91499547      -0.07938654        1  F        0
C        2.45246591       1.14065169      -0.45461270        1  F        0
O        2.86424633      -0.02812869      -0.94563390        1  F        0
O        1.29647520       1.46707730      -0.36622674        1  F        0
H        4.72450401      -0.57793192      -1.63739762        1  F        0
H        4.44200809      -0.81553101       0.11332419        1  F        0
H        5.41274578       1.38802653       0.35952564        1  F        0
H        5.08951075       1.79678971      -1.34862922        1  F        0
C       -4.64910235       2.89871057       0.74499973        1  F        0
C       -4.33660000       3.12613533      -0.73396502        1  F        0
O       -3.26896496       2.19064240      -0.97975878        1  F        0
C       -2.75885101       1.78804435       0.18600847        1  F        0
O       -3.46103751       2.23934841       1.22369152        1  F        0
O       -1.78132752       1.09674164       0.28995802        1  F        0
H       -4.78296622       3.81755710       1.31169487        1  F        0
H       -5.49662351       2.23078644       0.90501395        1  F        0
H       -5.16345078       2.88651982      -1.39903626        1  F        0
H       -3.96492597       4.13046945      -0.94158287        1  F        0
C       -2.81846335      -3.23061506      -2.41782978        1  F        0
C       -1.67740514      -3.71123406      -3.31564526        1  F        0
O       -0.74232211      -2.61776071      -3.25882164        1  F        0
C       -1.05618387      -1.81841124      -2.24124498        1  F        0
O       -2.20549304      -2.16953695      -1.66109284        1  F        0
O       -0.38078292      -0.88625644      -1.89230912        1  F        0
H       -3.65397348      -2.81029481      -2.97928882        1  F        0
H       -3.17615341      -3.98613992      -1.72148999        1  F        0
H       -1.18029040      -4.60416989      -2.93452890        1  F        0
H       -1.97022669      -3.85875049      -4.35298325        1  F        0
C        2.97983915      -0.04886536       3.54135707        2  T        1
C        2.23438929      -1.09664841       4.36408554        2  T        1
O        1.08124304      -1.37307301       3.55265014        2  T        1
C        1.29395412      -0.93978304       2.30464937        2  T        1
O        2.45853721      -0.25974223       2.21743665        2  T        1
O        0.55749812      -1.12955447       1.38346108        2  T        1
H        2.74567121       0.97300553       3.84500611        2  T        1
H        4.05785080      -0.19678376       3.51859390        2  T        1
H        2.79888482      -2.02266801       4.48664042        2  T        1
H        1.89652460      -0.73265238       5.33208019        2  T        1
41
Properties=species:S:1:pos:R:3:tags:I:1:is_solvent:L:1:group_label:I:1 Coordinates=T from=T ORCA-job=T Li1EC4_r01_charge_1_spin_1_liquid_t_traj_4_frame_0001=T E=T -1378.038016093494=T solvent_indices_0based="_JSON [31, 32, 33, 34, 35, 36, 37, 38, 39, 40]" complex_indices_0based="_JSON [0, 1, 2, 3, 4, 5, 6, 7, 8, 9, 10, 11, 12, 13, 14, 15, 16, 17, 18, 19, 20, 21, 22, 23, 24, 25, 26, 27, 28, 29, 30]" complex_indices_1based="_JSON [1, 2, 3, 4, 5, 6, 7, 8, 9, 10, 11, 12, 13, 14, 15, 16, 17, 18, 19, 20, 21, 22, 23, 24, 25, 26, 27, 28, 29, 30, 31]" pbc="F F F"
Li      -0.22550200       0.31303000      -0.43269600        1  F        0
C        4.28190900      -0.15364300      -0.73879200        1  F        0
C        4.70719000       1.28768700      -0.46265000        1  F        0
O        3.46974100       1.91499500      -0.07938700        1  F        0
C        2.45246600       1.14065200      -0.45461300        1  F        0
O        2.86424600      -0.02812900      -0.94563400        1  F        0
O        1.29647500       1.46707700      -0.36622700        1  F        0
H        4.72450400      -0.57793200      -1.63739800        1  F        0
H        4.44200800      -0.81553100       0.11332400        1  F        0
H        5.41274600       1.38802700       0.35952600        1  F        0
H        5.08951100       1.79679000      -1.34862900        1  F        0
C       -4.64910200       2.89871100       0.74500000        1  F        0
C       -4.33660000       3.12613500      -0.73396500        1  F        0
O       -3.26896500       2.19064200      -0.97975900        1  F        0
C       -2.75885100       1.78804400       0.18600800        1  F        0
O       -3.46103800       2.23934800       1.22369200        1  F        0
O       -1.78132800       1.09674200       0.28995800        1  F        0
H       -4.78296600       3.81755700       1.31169500        1  F        0
H       -5.49662400       2.23078600       0.90501400        1  F        0
H       -5.16345100       2.88652000      -1.39903600        1  F        0
H       -3.96492600       4.13046900      -0.94158300        1  F        0
C       -2.81846300      -3.23061500      -2.41783000        1  F        0
C       -1.67740500      -3.71123400      -3.31564500        1  F        0
O       -0.74232200      -2.61776100      -3.25882200        1  F        0
C       -1.05618400      -1.81841100      -2.24124500        1  F        0
O       -2.20549300      -2.16953700      -1.66109300        1  F        0
O       -0.38078300      -0.88625600      -1.89230900        1  F        0
H       -3.65397300      -2.81029500      -2.97928900        1  F        0
H       -3.17615300      -3.98614000      -1.72149000        1  F        0
H       -1.18029000      -4.60417000      -2.93452900        1  F        0
H       -1.97022700      -3.85875000      -4.35298300        1  F        0
C        2.97983900      -0.04886500       3.54135700        2  T        1
C        2.23438900      -1.09664800       4.36408600        2  T        1
O        1.08124300      -1.37307300       3.55265000        2  T        1
C        1.29395400      -0.93978300       2.30464900        2  T        1
O        2.45853700      -0.25974200       2.21743700        2  T        1
O        0.55749800      -1.12955400       1.38346100        2  T        1
H        2.74567100       0.97300600       3.84500600        2  T        1
H        4.05785100      -0.19678400       3.51859400        2  T        1
H        2.79888500      -2.02266800       4.48664000        2  T        1
H        1.89652500      -0.73265200       5.33208000        2  T        1
41
Properties=species:S:1:pos:R:3:tags:I:1:is_solvent:L:1:group_label:I:1 Coordinates=T from=T ORCA-job=T Li1EC4_r01_charge_1_spin_1_liquid_t_traj_4_frame_0002=T E=T -1378.035028229878=T solvent_indices_0based="_JSON [31, 32, 33, 34, 35, 36, 37, 38, 39, 40]" complex_indices_0based="_JSON [0, 1, 2, 3, 4, 5, 6, 7, 8, 9, 10, 11, 12, 13, 14, 15, 16, 17, 18, 19, 20, 21, 22, 23, 24, 25, 26, 27, 28, 29, 30]" complex_indices_1based="_JSON [1, 2, 3, 4, 5, 6, 7, 8, 9, 10, 11, 12, 13, 14, 15, 16, 17, 18, 19, 20, 21, 22, 23, 24, 25, 26, 27, 28, 29, 30, 31]" pbc="F F F"
Li      -0.61292333       0.77246340      -0.67690397        1  F        0
C        4.03928841       0.28489454      -0.81561617        1  F        0
C        4.38934893       1.56030913      -0.04896264        1  F        0
O        3.10636935       2.00116249       0.43448290        1  F        0
C        2.14610952       1.36995415      -0.23649960        1  F        0
O        2.62955137       0.43510060      -1.05188407        1  F        0
O        0.97454532       1.62732945      -0.12183040        1  F        0
H        4.54327382       0.19618640      -1.77558597        1  F        0
H        4.18979183      -0.61942392      -0.22391632        1  F        0
H        5.03980920       1.39337835       0.80715542        1  F        0
H        4.80239925       2.34458342      -0.68470747        1  F        0
C       -4.91269719       3.44441556       0.27563028        1  F        0
C       -4.08586101       4.04124222      -0.86500588        1  F        0
O       -3.04336727       3.06197923      -1.04702693        1  F        0
C       -3.01273974       2.24853702       0.00839627        1  F        0
O       -4.01202425       2.47906649       0.85360457        1  F        0
O       -2.17429069       1.40010722       0.17758362        1  F        0
H       -5.18164765       4.16567019       1.04424068        1  F        0
H       -5.80043022       2.91476464      -0.07208735        1  F        0
H       -4.63409296       4.13580191      -1.79976825        1  F        0
H       -3.61769188       4.99056507      -0.60251078        1  F        0
C       -1.90573762      -3.52052098      -1.01474428        1  F        0
C       -0.61537408      -3.91020155      -1.74905963        1  F        0
O       -0.16900398      -2.66929257      -2.32461151        1  F        0
C       -0.89698753      -1.66859192      -1.84738487        1  F        0
O       -1.92465911      -2.08669376      -1.11474588        1  F        0
O       -0.66390425      -0.50356602      -2.06389303        1  F        0
H       -2.80621775      -3.90580435      -1.49246531        1  F        0
H       -1.89155225      -3.78595510       0.04072577        1  F        0
H        0.16269357      -4.26437581      -1.07378638        1  F        0
H       -0.77182375      -4.62307226      -2.55655471        1  F        0
C        2.61979356      -1.16470025       3.23168039        2  T        1
C        2.24256760      -2.63949496       3.36103718        2  T        1
O        1.18188477      -2.78026786       2.40107699        2  T        1
C        1.19991025      -1.74106029       1.55423771        2  T        1
O        2.10947511      -0.81979614       1.93240084        2  T        1
O        0.50785116      -1.64437059       0.58536250        2  T        1
H        2.12774698      -0.53443353       3.97419990        2  T        1
H        3.69335060      -0.98649259       3.24360183        2  T        1
H        3.05405180      -3.31316605       3.07966686        2  T        1
H        1.85945887      -2.90895884       4.34306865        2  T        1
41
Properties=species:S:1:pos:R:3:tags:I:1:is_solvent:L:1:group_label:I:1 Coordinates=T from=T ORCA-job=T Li1EC4_r01_charge_1_spin_1_liquid_t_traj_4_frame_0002=T E=T -1378.035028229878=T solvent_indices_0based="_JSON [31, 32, 33, 34, 35, 36, 37, 38, 39, 40]" complex_indices_0based="_JSON [0, 1, 2, 3, 4, 5, 6, 7, 8, 9, 10, 11, 12, 13, 14, 15, 16, 17, 18, 19, 20, 21, 22, 23, 24, 25, 26, 27, 28, 29, 30]" complex_indices_1based="_JSON [1, 2, 3, 4, 5, 6, 7, 8, 9, 10, 11, 12, 13, 14, 15, 16, 17, 18, 19, 20, 21, 22, 23, 24, 25, 26, 27, 28, 29, 30, 31]" pbc="F F F"
Li      -0.61292300       0.77246300      -0.67690400        1  F        0
C        4.03928800       0.28489500      -0.81561600        1  F        0
C        4.38934900       1.56030900      -0.04896300        1  F        0
O        3.10636900       2.00116200       0.43448300        1  F        0
C        2.14611000       1.36995400      -0.23650000        1  F        0
O        2.62955100       0.43510100      -1.05188400        1  F        0
O        0.97454500       1.62732900      -0.12183000        1  F        0
H        4.54327400       0.19618600      -1.77558600        1  F        0
H        4.18979200      -0.61942400      -0.22391600        1  F        0
H        5.03980900       1.39337800       0.80715500        1  F        0
H        4.80239900       2.34458300      -0.68470700        1  F        0
C       -4.91269700       3.44441600       0.27563000        1  F        0
C       -4.08586100       4.04124200      -0.86500600        1  F        0
O       -3.04336700       3.06197900      -1.04702700        1  F        0
C       -3.01274000       2.24853700       0.00839600        1  F        0
O       -4.01202400       2.47906600       0.85360500        1  F        0
O       -2.17429100       1.40010700       0.17758400        1  F        0
H       -5.18164800       4.16567000       1.04424100        1  F        0
H       -5.80043000       2.91476500      -0.07208700        1  F        0
H       -4.63409300       4.13580200      -1.79976800        1  F        0
H       -3.61769200       4.99056500      -0.60251100        1  F        0
C       -1.90573800      -3.52052100      -1.01474400        1  F        0
C       -0.61537400      -3.91020200      -1.74906000        1  F        0
O       -0.16900400      -2.66929300      -2.32461200        1  F        0
C       -0.89698800      -1.66859200      -1.84738500        1  F        0
O       -1.92465900      -2.08669400      -1.11474600        1  F        0
O       -0.66390400      -0.50356600      -2.06389300        1  F        0
H       -2.80621800      -3.90580400      -1.49246500        1  F        0
H       -1.89155200      -3.78595500       0.04072600        1  F        0
H        0.16269400      -4.26437600      -1.07378600        1  F        0
H       -0.77182400      -4.62307200      -2.55655500        1  F        0
C        2.61979400      -1.16470000       3.23168000        2  T        1
C        2.24256800      -2.63949500       3.36103700        2  T        1
O        1.18188500      -2.78026800       2.40107700        2  T        1
C        1.19991000      -1.74106000       1.55423800        2  T        1
O        2.10947500      -0.81979600       1.93240100        2  T        1
O        0.50785100      -1.64437100       0.58536200        2  T        1
H        2.12774700      -0.53443400       3.97420000        2  T        1
H        3.69335100      -0.98649300       3.24360200        2  T        1
H        3.05405200      -3.31316600       3.07966700        2  T        1
H        1.85945900      -2.90895900       4.34306900        2  T        1
41
Properties=species:S:1:pos:R:3:tags:I:1:is_solvent:L:1:group_label:I:1 Coordinates=T from=T ORCA-job=T Li1EC4_r01_charge_1_spin_1_liquid_t_traj_4_frame_0003=T E=T -1378.037306818011=T solvent_indices_0based="_JSON [31, 32, 33, 34, 35, 36, 37, 38, 39, 40]" complex_indices_0based="_JSON [0, 1, 2, 3, 4, 5, 6, 7, 8, 9, 10, 11, 12, 13, 14, 15, 16, 17, 18, 19, 20, 21, 22, 23, 24, 25, 26, 27, 28, 29, 30]" complex_indices_1based="_JSON [1, 2, 3, 4, 5, 6, 7, 8, 9, 10, 11, 12, 13, 14, 15, 16, 17, 18, 19, 20, 21, 22, 23, 24, 25, 26, 27, 28, 29, 30, 31]" pbc="F F F"
Li      -1.08419810       0.82072805      -0.40647547        1  F        0
C        3.45567292       1.33441420      -0.05889957        1  F        0
C        3.50435465       1.73284824       1.41738803        1  F        0
O        2.12438738       1.65426728       1.81721031        1  F        0
C        1.35764077       1.57401712       0.73794654        1  F        0
O        2.06580931       1.50148006      -0.38658095        1  F        0
O        0.15162977       1.59402639       0.76826230        1  F        0
H        4.04111496       1.98154201      -0.70783905        1  F        0
H        3.72191044       0.28980166      -0.22087238        1  F        0
H        4.07742590       1.04183825       2.03180696        1  F        0
H        3.84404460       2.75572273       1.57677674        1  F        0
C       -5.27935703       3.80278441      -1.42739912        1  F        0
C       -4.02158188       4.59809012      -1.78706120        1  F        0
O       -2.97088052       3.62287897      -1.63948454        1  F        0
C       -3.43793372       2.56294849      -0.98246645        1  F        0
O       -4.74465862       2.64272078      -0.76062908        1  F        0
O       -2.75470211       1.63581901      -0.63097728        1  F        0
H       -5.94238002       4.31772884      -0.73475415        1  F        0
H       -5.83965159       3.46625494      -2.30201544        1  F        0
H       -4.01319961       4.96101339      -2.81316122        1  F        0
H       -3.82194970       5.41668675      -1.09923749        1  F        0
C       -1.44058661      -3.37284150       0.84123010        1  F        0
C       -0.86716514      -4.09719482      -0.37670647        1  F        0
O       -0.40118812      -3.01403873      -1.20356775        1  F        0
C       -0.91738108      -1.87390954      -0.76410023        1  F        0
O       -1.63476261      -2.03678816       0.34707542        1  F        0
O       -0.77769217      -0.80884079      -1.31329663        1  F        0
H       -2.40113331      -3.76219463       1.17020378        1  F        0
H       -0.73804458      -3.32895280       1.67514015        1  F        0
H       -0.01807926      -4.73746941      -0.14062190        1  F        0
H       -1.61934752      -4.65351008      -0.93637174        1  F        0
C        4.08273021      -2.76983644       2.24875866        2  T        1
C        3.23220464      -3.96931107       1.83477895        2  T        1
O        1.97871506      -3.35979061       1.47740444        2  T        1
C        2.16164998      -2.04148080       1.27460525        2  T        1
O        3.41018239      -1.66928987       1.61121527        2  T        1
O        1.32801821      -1.29885036       0.84935512        2  T        1
H        4.07864348      -2.60114322       3.32699892        2  T        1
H        5.10556837      -2.81105651       1.87989930        2  T        1
H        3.62524375      -4.48610952       0.95663795        2  T        1
H        3.05687413      -4.67850301       2.64245145        2  T        1
41
Properties=species:S:1:pos:R:3:tags:I:1:is_solvent:L:1:group_label:I:1 Coordinates=T from=T ORCA-job=T Li1EC4_r01_charge_1_spin_1_liquid_t_traj_4_frame_0003=T E=T -1378.037306818011=T solvent_indices_0based="_JSON [31, 32, 33, 34, 35, 36, 37, 38, 39, 40]" complex_indices_0based="_JSON [0, 1, 2, 3, 4, 5, 6, 7, 8, 9, 10, 11, 12, 13, 14, 15, 16, 17, 18, 19, 20, 21, 22, 23, 24, 25, 26, 27, 28, 29, 30]" complex_indices_1based="_JSON [1, 2, 3, 4, 5, 6, 7, 8, 9, 10, 11, 12, 13, 14, 15, 16, 17, 18, 19, 20, 21, 22, 23, 24, 25, 26, 27, 28, 29, 30, 31]" pbc="F F F"
Li      -1.08419800       0.82072800      -0.40647500        1  F        0
C        3.45567300       1.33441400      -0.05890000        1  F        0
C        3.50435500       1.73284800       1.41738800        1  F        0
O        2.12438700       1.65426700       1.81721000        1  F        0
C        1.35764100       1.57401700       0.73794700        1  F        0
O        2.06580900       1.50148000      -0.38658100        1  F        0
O        0.15163000       1.59402600       0.76826200        1  F        0
H        4.04111500       1.98154200      -0.70783900        1  F        0
H        3.72191000       0.28980200      -0.22087200        1  F        0
H        4.07742600       1.04183800       2.03180700        1  F        0
H        3.84404500       2.75572300       1.57677700        1  F        0
C       -5.27935700       3.80278400      -1.42739900        1  F        0
C       -4.02158200       4.59809000      -1.78706100        1  F        0
O       -2.97088100       3.62287900      -1.63948500        1  F        0
C       -3.43793400       2.56294800      -0.98246600        1  F        0
O       -4.74465900       2.64272100      -0.76062900        1  F        0
O       -2.75470200       1.63581900      -0.63097700        1  F        0
H       -5.94238000       4.31772900      -0.73475400        1  F        0
H       -5.83965200       3.46625500      -2.30201500        1  F        0
H       -4.01320000       4.96101300      -2.81316100        1  F        0
H       -3.82195000       5.41668700      -1.09923700        1  F        0
C       -1.44058700      -3.37284100       0.84123000        1  F        0
C       -0.86716500      -4.09719500      -0.37670600        1  F        0
O       -0.40118800      -3.01403900      -1.20356800        1  F        0
C       -0.91738100      -1.87391000      -0.76410000        1  F        0
O       -1.63476300      -2.03678800       0.34707500        1  F        0
O       -0.77769200      -0.80884100      -1.31329700        1  F        0
H       -2.40113300      -3.76219500       1.17020400        1  F        0
H       -0.73804500      -3.32895300       1.67514000        1  F        0
H       -0.01807900      -4.73746900      -0.14062200        1  F        0
H       -1.61934800      -4.65351000      -0.93637200        1  F        0
C        4.08273000      -2.76983600       2.24875900        2  T        1
C        3.23220500      -3.96931100       1.83477900        2  T        1
O        1.97871500      -3.35979100       1.47740400        2  T        1
C        2.16165000      -2.04148100       1.27460500        2  T        1
O        3.41018200      -1.66929000       1.61121500        2  T        1
O        1.32801800      -1.29885000       0.84935500        2  T        1
H        4.07864300      -2.60114300       3.32699900        2  T        1
H        5.10556800      -2.81105700       1.87989900        2  T        1
H        3.62524400      -4.48611000       0.95663800        2  T        1
H        3.05687400      -4.67850300       2.64245100        2  T        1
41
Properties=species:S:1:pos:R:3:tags:I:1:is_solvent:L:1:group_label:I:1 Coordinates=T from=T ORCA-job=T Li1EC4_r01_charge_1_spin_1_liquid_t_traj_4_frame_0004=T E=T -1378.038698435206=T solvent_indices_0based="_JSON [31, 32, 33, 34, 35, 36, 37, 38, 39, 40]" complex_indices_0based="_JSON [0, 1, 2, 3, 4, 5, 6, 7, 8, 9, 10, 11, 12, 13, 14, 15, 16, 17, 18, 19, 20, 21, 22, 23, 24, 25, 26, 27, 28, 29, 30]" complex_indices_1based="_JSON [1, 2, 3, 4, 5, 6, 7, 8, 9, 10, 11, 12, 13, 14, 15, 16, 17, 18, 19, 20, 21, 22, 23, 24, 25, 26, 27, 28, 29, 30, 31]" pbc="F F F"
Li      -1.35169638       0.83350369      -0.17992751        1  F        0
C        3.19718022       1.14155658      -0.19987396        1  F        0
C        3.40292949       1.56580408       1.25654962        1  F        0
O        2.06551386       1.56769536       1.78896437        1  F        0