41
Properties=species:S:1:pos:R:3:is_solvent:L:1:group_label:I:1:tags:I:1 Coordinates=T from=T ORCA-job=T Li1EC4_r03_charge_1_spin_1_liquid_t_traj_3_frame_0000=T E=T -1378.044306730309=T solvent_indices_0based="_JSON [21, 22, 23, 24, 25, 26, 27, 28, 29, 30]" complex_indices_0based="_JSON [0, 1, 2, 3, 4, 5, 6, 7, 8, 9, 10, 11, 12, 13, 14, 15, 16, 17, 18, 19, 20, 31, 32, 33, 34, 35, 36, 37, 38, 39, 40]" complex_indices_1based="_JSON [1, 2, 3, 4, 5, 6, 7, 8, 9, 10, 11, 12, 13, 14, 15, 16, 17, 18, 19, 20, 21, 32, 33, 34, 35, 36, 37, 38, 39, 40, 41]" pbc="F F F"
Li      -0.38391566      -1.21184732      -0.72743881  F        0        1
C        4.09511796      -0.01639405      -0.12509522  F        0        1
C        3.99754896       1.38738380      -0.72404161  F        0        1
O        2.75505877       1.34024212      -1.44949465  F        0        1
C        2.04821003       0.28371207      -1.04698492  F        0        1
O        2.74137965      -0.49631238      -0.21482707  F        0        1
O        0.91968315       0.06156792      -1.39910195  F        0        1
H        4.73389471      -0.68450255      -0.70460296  F        0        1
H        4.39518115      -0.02529414       0.92069846  F        0        1
H        3.92114644       2.16928599       0.03281923  F        0        1
H        4.79645804       1.62130847      -1.42459972  F        0        1
C       -3.98000289       1.98232391      -2.40411709  F        0        1
C       -3.08841298       2.55708062      -1.30266737  F        0        1
O       -2.15275072       1.49058915      -1.06039185  F        0        1
C       -2.61343229       0.36374034      -1.60663886  F        0        1
O       -3.72109297       0.56868405      -2.32053058  F        0        1
O       -2.09685959      -0.71410767      -1.47127690  F        0        1
H       -5.04244872       2.14784627      -2.23802610  F        0        1
H       -3.69850834       2.32228380      -3.40172640  F        0        1
H       -2.53146910       3.44077829      -1.60697935  F        0        1
H       -3.62899526       2.75454387      -0.37584868  F        0        1
C       -2.02053623      -3.52841087       2.99955596  T        1        2
C       -1.00144577      -3.00839600       4.01413587  T        1        2
O       -0.44147178      -1.86258334       3.34617560  T        1        2
C       -0.74654936      -1.91472718       2.04899314  T        1        2
O       -1.59436249      -2.90855857       1.77281905  T        1        2
O       -0.31017306      -1.15083819       1.22902862  T        1        2
H       -1.99371017      -4.60808454       2.86767290  T        1        2
H       -3.03928143      -3.20121609       3.21258476  T        1        2
H       -1.44522598      -2.67756382       4.95078554  T        1        2
H       -0.19512536      -3.71657658       4.21012893  T        1        2
C       -0.64251833      -5.40745567      -3.65709339  F        0        1
C       -0.62938735      -4.10683339      -4.46173656  F        0        1
O       -0.58707224      -3.09715418      -3.43732693  F        0        1
C       -0.25020764      -3.65830686      -2.27400165  F        0        1
O       -0.17819744      -4.98715978      -2.36099060  F        0        1
O       -0.03192655      -3.04335108      -1.26402466  F        0        1
H       -1.64279490      -5.82701902      -3.54141268  F        0        1
H        0.03957652      -6.16478800      -4.03785520  F        0        1
H        0.25945340      -3.99896845      -5.08498228  F        0        1
H       -1.52615989      -3.95426157      -5.05871532  F        0        1
41
Properties=species:S:1:pos:R:3:is_solvent:L:1:group_label:I:1:tags:I:1 Coordinates=T from=T ORCA-job=T Li1EC4_r03_charge_1_spin_1_liquid_t_traj_3_frame_0000=T E=T -1378.044306730309=T solvent_indices_0based="_JSON [21, 22, 23, 24, 25, 26, 27, 28, 29, 30]" complex_indices_0based="_JSON [0, 1, 2, 3, 4, 5, 6, 7, 8, 9, 10, 11, 12, 13, 14, 15, 16, 17, 18, 19, 20, 31, 32, 33, 34, 35, 36, 37, 38, 39, 40]" complex_indices_1based="_JSON [1, 2, 3, 4, 5, 6, 7, 8, 9, 10, 11, 12, 13, 14, 15, 16, 17, 18, 19, 20, 21, 32, 33, 34, 35, 36, 37, 38, 39, 40, 41]" pbc="F F F"
Li      -0.38391600      -1.21184700      -0.72743900  F        0        1
C        4.09511800      -0.01639400      -0.12509500  F        0        1
C        3.99754900       1.38738400      -0.72404200  F        0        1
O        2.75505900       1.34024200      -1.44949500  F        0        1
C        2.04821000       0.28371200      -1.04698500  F        0        1
O        2.74138000      -0.49631200      -0.21482700  F        0        1
O        0.91968300       0.06156800      -1.39910200  F        0        1
H        4.73389500      -0.68450300      -0.70460300  F        0        1
H        4.39518100      -0.02529400       0.92069800  F        0        1
H        3.92114600       2.16928600       0.03281900  F        0        1
H        4.79645800       1.62130800      -1.42460000  F        0        1
C       -3.98000300       1.98232400      -2.40411700  F        0        1
C       -3.08841300       2.55708100      -1.30266700  F        0        1
O       -2.15275100       1.49058900      -1.06039200  F        0        1
C       -2.61343200       0.36374000      -1.60663900  F        0        1
O       -3.72109300       0.56868400      -2.32053100  F        0        1
O       -2.09686000      -0.71410800      -1.47127700  F        0        1
H       -5.04244900       2.14784600      -2.23802600  F        0        1
H       -3.69850800       2.32228400      -3.40172600  F        0        1
H       -2.53146900       3.44077800      -1.60697900  F        0        1
H       -3.62899500       2.75454400      -0.37584900  F        0        1
C       -2.02053600      -3.52841100       2.99955600  T        1        2
C       -1.00144600      -3.00839600       4.01413600  T        1        2
O       -0.44147200      -1.86258300       3.34617600  T        1        2
C       -0.74654900      -1.91472700       2.04899300  T        1        2
O       -1.59436200      -2.90855900       1.77281900  T        1        2
O       -0.31017300      -1.15083800       1.22902900  T        1        2
H       -1.99371000      -4.60808500       2.86767300  T        1        2
H       -3.03928100      -3.20121600       3.21258500  T        1        2
H       -1.44522600      -2.67756400       4.95078600  T        1        2
H       -0.19512500      -3.71657700       4.21012900  T        1        2
C       -0.64251800      -5.40745600      -3.65709300  F        0        1
C       -0.62938700      -4.10683300      -4.46173700  F        0        1
O       -0.58707200      -3.09715400      -3.43732700  F        0        1
C       -0.25020800      -3.65830700      -2.27400200  F        0        1
O       -0.17819700      -4.98716000      -2.36099100  F        0        1
O       -0.03192700      -3.04335100      -1.26402500  F        0        1
H       -1.64279500      -5.82701900      -3.54141300  F        0        1
H        0.03957700      -6.16478800      -4.03785500  F        0        1
H        0.25945300      -3.99896800      -5.08498200  F        0        1
H       -1.52616000      -3.95426200      -5.05871500  F        0        1
41
Properties=species:S:1:pos:R:3:is_solvent:L:1:group_label:I:1:tags:I:1 Coordinates=T from=T ORCA-job=T Li1EC4_r03_charge_1_spin_1_liquid_t_traj_3_frame_0001=T E=T -1378.039810112431=T solvent_indices_0based="_JSON [21, 22, 23, 24, 25, 26, 27, 28, 29, 30]" complex_indices_0based="_JSON [0, 1, 2, 3, 4, 5, 6, 7, 8, 9, 10, 11, 12, 13, 14, 15, 16, 17, 18, 19, 20, 31, 32, 33, 34, 35, 36, 37, 38, 39, 40]" complex_indices_1based="_JSON [1, 2, 3, 4, 5, 6, 7, 8, 9, 10, 11, 12, 13, 14, 15, 16, 17, 18, 19, 20, 21, 32, 33, 34, 35, 36, 37, 38, 39, 40, 41]" pbc="F F F"
Li      -0.90977060      -1.00659103      -1.26748567  F        0        1
C        3.61135218      -0.55565552       0.02516122  F        0        1
C        3.00710444       0.83300593       0.23314177  F        0        1
O        2.01535299       0.90429675      -0.80827225  F        0        1
C        1.74192437      -0.32544881      -1.22615818  F        0        1
O        2.60750641      -1.22377026      -0.76247116  F        0        1
O        0.82111994      -0.60302504      -1.95706705  F        0        1
H        4.53941399      -0.53896405      -0.54804580  F        0        1
H        3.74777880      -1.11292354       0.94963298  F        0        1
H        2.49278720       0.93082889       1.18934971  F        0        1
H        3.71426687       1.64719896       0.09070341  F        0        1
C       -4.34589012       2.66697101      -2.32576028  F        0        1
C       -3.16114531       3.19993284      -1.51845809  F        0        1
O       -2.28174329       2.05923918      -1.45374251  F        0        1
C       -2.95598308       0.96456133      -1.79706618  F        0        1
O       -4.18271785       1.23817329      -2.22772209  F        0        1
O       -2.50879396      -0.15331988      -1.72695141  F        0        1
H       -5.31518478       2.93049252      -1.90813899  F        0        1
H       -4.30324388       2.94153759      -3.38042808  F        0        1
H       -2.63008601       4.01484856      -2.00557523  F        0        1
H       -3.42796908       3.48011471      -0.49875466  F        0        1
C       -1.55991559      -3.02423435       2.75716365  T        1        2
C       -0.17120118      -3.61056397       2.50076726  T        1        2
O        0.56326577      -2.48167612       1.99382205  T        1        2
C       -0.30091344      -1.54301770       1.59279665  T        1        2
O       -1.54929962      -1.82085334       1.97055000  T        1        2
O        0.01129871      -0.56281130       0.96867684  T        1        2
H       -2.36963238      -3.65923388       2.40350913  T        1        2
H       -1.72396315      -2.74980606       3.80020711  T        1        2
H        0.32593739      -3.97165182       3.39876606  T        1        2
H       -0.17705270      -4.38384970       1.73139966  T        1        2
C       -0.04885504      -5.84969253      -2.35453502  F        0        1
C        0.11004302      -4.82889721      -3.48197068  F        0        1
O       -0.48759548      -3.64307928      -2.91978631  F        0        1
C       -0.59092011      -3.78648390      -1.60351725  F        0        1
O       -0.27238742      -5.01427098      -1.19881357  F        0        1
O       -0.93862456      -2.90751927      -0.85310606  F        0        1
H       -0.91925739      -6.49472666      -2.47999507  F        0        1
H        0.84180761      -6.44874325      -2.17826569  F        0        1
H        1.15196842      -4.60469309      -3.71314908  F        0        1
H       -0.43099981      -5.08862221      -4.38902051  F        0        1
41
Properties=species:S:1:pos:R:3:is_solvent:L:1:group_label:I:1:tags:I:1 Coordinates=T from=T ORCA-job=T Li1EC4_r03_charge_1_spin_1_liquid_t_traj_3_frame_0001=T E=T -1378.039810112431=T solvent_indices_0based="_JSON [21, 22, 23, 24, 25, 26, 27, 28, 29, 30]" complex_indices_0based="_JSON [0, 1, 2, 3, 4, 5, 6, 7, 8, 9, 10, 11, 12, 13, 14, 15, 16, 17, 18, 19, 20, 31, 32, 33, 34, 35, 36, 37, 38, 39, 40]" complex_indices_1based="_JSON [1, 2, 3, 4, 5, 6, 7, 8, 9, 10, 11, 12, 13, 14, 15, 16, 17, 18, 19, 20, 21, 32, 33, 34, 35, 36, 37, 38, 39, 40, 41]" pbc="F F F"
Li      -0.90977100      -1.00659100      -1.26748600  F        0        1
C        3.61135200      -0.55565600       0.02516100  F        0        1
C        3.00710400       0.83300600       0.23314200  F        0        1
O        2.01535300       0.90429700      -0.80827200  F        0        1
C        1.74192400      -0.32544900      -1.22615800  F        0        1
O        2.60750600      -1.22377000      -0.76247100  F        0        1
O        0.82112000      -0.60302500      -1.95706700  F        0        1
H        4.53941400      -0.53896400      -0.54804600  F        0        1
H        3.74777900      -1.11292400       0.94963300  F        0        1
H        2.49278700       0.93082900       1.18935000  F        0        1
H        3.71426700       1.64719900       0.09070300  F        0        1
C       -4.34589000       2.66697100      -2.32576000  F        0        1
C       -3.16114500       3.19993300      -1.51845800  F        0        1
O       -2.28174300       2.05923900      -1.45374300  F        0        1
C       -2.95598300       0.96456100      -1.79706600  F        0        1
O       -4.18271800       1.23817300      -2.22772200  F        0        1
O       -2.50879400      -0.15332000      -1.72695100  F        0        1
H       -5.31518500       2.93049300      -1.90813900  F        0        1
H       -4.30324400       2.94153800      -3.38042800  F        0        1
H       -2.63008600       4.01484900      -2.00557500  F        0        1
H       -3.42796900       3.48011500      -0.49875500  F        0        1
C       -1.55991600      -3.02423400       2.75716400  T        1        2
C       -0.17120100      -3.61056400       2.50076700  T        1        2
O        0.56326600      -2.48167600       1.99382200  T        1        2
C       -0.30091300      -1.54301800       1.59279700  T        1        2
O       -1.54930000      -1.82085300       1.97055000  T        1        2
O        0.01129900      -0.56281100       0.96867700  T        1        2
H       -2.36963200      -3.65923400       2.40350900  T        1        2
H       -1.72396300      -2.74980600       3.80020700  T        1        2
H        0.32593700      -3.97165200       3.39876600  T        1        2
H       -0.17705300      -4.38385000       1.73140000  T        1        2
C       -0.04885500      -5.84969300      -2.35453500  F        0        1
C        0.11004300      -4.82889700      -3.48197100  F        0        1
O       -0.48759500      -3.64307900      -2.91978600  F        0        1
C       -0.59092000      -3.78648400      -1.60351700  F        0        1
O       -0.27238700      -5.01427100      -1.19881400  F        0        1
O       -0.93862500      -2.90751900      -0.85310600  F        0        1
H       -0.91925700      -6.49472700      -2.47999500  F        0        1
H        0.84180800      -6.44874300      -2.17826600  F        0        1
H        1.15196800      -4.60469300      -3.71314900  F        0        1
H       -0.43100000      -5.08862200      -4.38902100  F        0        1
41
Properties=species:S:1:pos:R:3:is_solvent:L:1:group_label:I:1:tags:I:1 Coordinates=T from=T ORCA-job=T Li1EC4_r03_charge_1_spin_1_liquid_t_traj_3_frame_0002=T E=T -1378.033554144097=T solvent_indices_0based="_JSON [21, 22, 23, 24, 25, 26, 27, 28, 29, 30]" complex_indices_0based="_JSON [0, 1, 2, 3, 4, 5, 6, 7, 8, 9, 10, 11, 12, 13, 14, 15, 16, 17, 18, 19, 20, 31, 32, 33, 34, 35, 36, 37, 38, 39, 40]" complex_indices_1based="_JSON [1, 2, 3, 4, 5, 6, 7, 8, 9, 10, 11, 12, 13, 14, 15, 16, 17, 18, 19, 20, 21, 32, 33, 34, 35, 36, 37, 38, 39, 40, 41]" pbc="F F F"
Li      -0.26646177      -0.73233264      -1.81634290  F        0        1
C        3.67932689       0.12354796       0.60118779  F        0        1
C        2.79619027       1.00940063       1.48252002  F        0        1
O        1.76133844       1.43184274       0.57483880  F        0        1
C        1.76615550       0.63646781      -0.48760239  F        0        1
O        2.83125841      -0.15541687      -0.52786381  F        0        1
O        0.90522689       0.64871163      -1.33577760  F        0        1
H        4.57361377       0.63057914       0.23711207  F        0        1
H        3.94636763      -0.82142857       1.06980850  F        0        1
H        2.32302841       0.45671553       2.29414141  F        0        1
H        3.30176684       1.89468593       1.86219462  F        0        1
C       -3.91594073       2.64655032      -2.78349868  F        0        1
C       -2.55837770       2.97311451      -3.40793314  F        0        1
O       -1.84550396       1.72694542      -3.28453226  F        0        1
C       -2.47404150       0.94592488      -2.40784966  F        0        1
O       -3.63645450       1.45786507      -2.01704002  F        0        1
O       -2.04236574      -0.11094206      -2.01833502  F        0        1
H       -4.28028204       3.41407651      -2.10414977  F        0        1
H       -4.68105156       2.40293433      -3.52162845  F        0        1
H       -2.61089221       3.23513970      -4.46237984  F        0        1
H       -2.00777963       3.73597919      -2.85615674  F        0        1
C       -0.70285157      -4.33419581       2.28176685  T        1        2
C        0.37034866      -3.92398355       3.28745930  T        1        2
O        0.70991903      -2.59455583       2.85969494  T        1        2
C        0.27901016      -2.40071418       1.60438888  T        1        2
O       -0.46069549      -3.44530491       1.17779939  T        1        2
O        0.51876521      -1.43168186       0.94931585  T        1        2
H       -0.59736884      -5.35978659       1.93299708  T        1        2
H       -1.71596883      -4.16194977       2.64950327  T        1        2
H        0.01433975      -3.87542040       4.31436802  T        1        2
H        1.26550264      -4.54547048       3.22796008  T        1        2
C       -1.02930326      -5.77725285      -1.85321481  F        0        1
C       -2.30827641      -4.98804047      -2.13831473  F        0        1
O       -1.86927044      -3.62189988      -2.03121352  F        0        1
C       -0.53767042      -3.58078685      -2.05964632  F        0        1
O        0.00502029      -4.79686137      -2.04442081  F        0        1
O        0.10420192      -2.56389458      -2.10348294  F        0        1
H       -0.97273005      -6.13690553      -0.82482310  F        0        1
H       -0.85758786      -6.59899706      -2.54529743  F        0        1
H       -2.69161163      -5.14552989      -3.14718778  F        0        1
H       -3.09800431      -5.15363509      -1.40845270  F        0        1
41
Properties=species:S:1:pos:R:3:is_solvent:L:1:group_label:I:1:tags:I:1 Coordinates=T from=T ORCA-job=T Li1EC4_r03_charge_1_spin_1_liquid_t_traj_3_frame_0002=T E=T -1378.033554144097=T solvent_indices_0based="_JSON [21, 22, 23, 24, 25, 26, 27, 28, 29, 30]" complex_indices_0based="_JSON [0, 1, 2, 3, 4, 5, 6, 7, 8, 9, 10, 11, 12, 13, 14, 15, 16, 17, 18, 19, 20, 31, 32, 33, 34, 35, 36, 37, 38, 39, 40]" complex_indices_1based="_JSON [1, 2, 3, 4, 5, 6, 7, 8, 9, 10, 11, 12, 13, 14, 15, 16, 17, 18, 19, 20, 21, 32, 33, 34, 35, 36, 37, 38, 39, 40, 41]" pbc="F F F"
Li      -0.26646200      -0.73233300      -1.81634300  F        0        1
C        3.67932700       0.12354800       0.60118800  F        0        1
C        2.79619000       1.00940100       1.48252000  F        0        1
O        1.76133800       1.43184300       0.57483900  F        0        1
C        1.76615600       0.63646800      -0.48760200  F        0        1
O        2.83125800      -0.15541700      -0.52786400  F        0        1
O        0.90522700       0.64871200      -1.33577800  F        0        1
H        4.57361400       0.63057900       0.23711200  F        0        1
H        3.94636800      -0.82142900       1.06980800  F        0        1
H        2.32302800       0.45671600       2.29414100  F        0        1
H        3.30176700       1.89468600       1.86219500  F        0        1
C       -3.91594100       2.64655000      -2.78349900  F        0        1
C       -2.55837800       2.97311500      -3.40793300  F        0        1
O       -1.84550400       1.72694500      -3.28453200  F        0        1
C       -2.47404100       0.94592500      -2.40785000  F        0        1
O       -3.63645400       1.45786500      -2.01704000  F        0        1
O       -2.04236600      -0.11094200      -2.01833500  F        0        1
H       -4.28028200       3.41407700      -2.10415000  F        0        1
H       -4.68105200       2.40293400      -3.52162800  F        0        1
H       -2.61089200       3.23514000      -4.46238000  F        0        1
H       -2.00778000       3.73597900      -2.85615700  F        0        1
C       -0.70285200      -4.33419600       2.28176700  T        1        2
C        0.37034900      -3.92398400       3.28745900  T        1        2
O        0.70991900      -2.59455600       2.85969500  T        1        2
C        0.27901000      -2.40071400       1.60438900  T        1        2
O       -0.46069500      -3.44530500       1.17779900  T        1        2
O        0.51876500      -1.43168200       0.94931600  T        1        2
H       -0.59736900      -5.35978700       1.93299700  T        1        2
H       -1.71596900      -4.16195000       2.64950300  T        1        2
H        0.01434000      -3.87542000       4.31436800  T        1        2
H        1.26550300      -4.54547000       3.22796000  T        1        2
C       -1.02930300      -5.77725300      -1.85321500  F        0        1
C       -2.30827600      -4.98804000      -2.13831500  F        0        1
O       -1.86927000      -3.62190000      -2.03121400  F        0        1
C       -0.53767000      -3.58078700      -2.05964600  F        0        1
O        0.00502000      -4.79686100      -2.04442100  F        0        1
O        0.10420200      -2.56389500      -2.10348300  F        0        1
H       -0.97273000      -6.13690600      -0.82482300  F        0        1
H       -0.85758800      -6.59899700      -2.54529700  F        0        1
H       -2.69161200      -5.14553000      -3.14718800  F        0        1
H       -3.09800400      -5.15363500      -1.40845300  F        0        1
41
Properties=species:S:1:pos:R:3:is_solvent:L:1:group_label:I:1:tags:I:1 Coordinates=T from=T ORCA-job=T Li1EC4_r03_charge_1_spin_1_liquid_t_traj_3_frame_0003=T E=T -1378.036881586834=T solvent_indices_0based="_JSON [21, 22, 23, 24, 25, 26, 27, 28, 29, 30]" complex_indices_0based="_JSON [0, 1, 2, 3, 4, 5, 6, 7, 8, 9, 10, 11, 12, 13, 14, 15, 16, 17, 18, 19, 20, 31, 32, 33, 34, 35, 36, 37, 38, 39, 40]" complex_indices_1based="_JSON [1, 2, 3, 4, 5, 6, 7, 8, 9, 10, 11, 12, 13, 14, 15, 16, 17, 18, 19, 20, 21, 32, 33, 34, 35, 36, 37, 38, 39, 40, 41]" pbc="F F F"
Li      -1.23738305      -0.41008996      -1.56727060  F        0        1
C        2.78702277      -0.22255617       0.76395735  F        0        1
C        2.17863437       0.20367199       2.10159729  F        0        1
O        0.77300312       0.29518602       1.80475470  F        0        1
C        0.59164274       0.23389845       0.49200612  F        0        1
O        1.73057091       0.05062424      -0.17208931  F        0        1
O       -0.48380365       0.35736066      -0.04221340  F        0        1
H        3.65989456       0.35868014       0.47444641  F        0        1
H        3.00667037      -1.29025841       0.72315914  F        0        1
H        2.31039544      -0.53833808       2.88534079  F        0        1
H        2.51920535       1.18302657       2.44106518  F        0        1
C       -3.53291593       3.31475240      -4.42734148  F        0        1
C       -2.14990293       3.78977434      -3.97900226  F        0        1
O       -1.57878089       2.60215852      -3.39556187  F        0        1
C       -2.54609757       1.71167982      -3.17601709  F        0        1
O       -3.71596145       2.10375378      -3.66949050  F        0        1
O       -2.38229919       0.66776343      -2.59912459  F        0        1
H       -4.33662413       4.00280127      -4.17395135  F        0        1
H       -3.57577969       3.06142849      -5.48810008  F        0        1
H       -1.50929137       4.11174565      -4.79809535  F        0        1
H       -2.19199992       4.56043665      -3.20854549  F        0        1
C        0.75875798      -5.24606703       2.73043793  T        1        2
C        1.91284007      -4.31277809       3.10227736  T        1        2
O        1.61370876      -3.11894373       2.35813074  T        1        2
C        0.69687775      -3.39026852       1.41088376  T        1        2
O        0.23176948      -4.64833598       1.53349019  T        1        2
O        0.34627107      -2.61978784       0.57109818  T        1        2
H        1.07659193      -6.26000197       2.49768896  T        1        2
H       -0.02947130      -5.26490010       3.48570200  T        1        2
H        1.94213750      -4.06455544       4.16267299  T        1        2
H        2.88529887      -4.68625995       2.77744489  T        1        2
C       -1.31824729      -5.50185824      -1.37615136  F        0        1
C       -2.51613147      -4.89648948      -0.63571665  F        0        1
O       -2.34284406      -3.48219576      -0.83141259  F        0        1
C       -1.36794956      -3.26441339      -1.71035301  F        0        1
O       -0.78392813      -4.38754251      -2.11199901  F        0        1
O       -1.06069658      -2.17304183      -2.11747325  F        0        1
H       -0.54338157      -5.86121699      -0.70040632  F        0        1
H       -1.59329407      -6.27891932      -2.08656758  F        0        1
H       -3.47670715      -5.18343443      -1.06454299  F        0        1
H       -2.50580377      -5.09657763       0.43370648  F        0        1
41
Properties=species:S:1:pos:R:3:is_solvent:L:1:group_label:I:1:tags:I:1 Coordinates=T from=T ORCA-job=T Li1EC4_r03_charge_1_spin_1_liquid_t_traj_3_frame_0003=T E=T -1378.036881586834=T solvent_indices_0based="_JSON [21, 22, 23, 24, 25, 26, 27, 28, 29, 30]" complex_indices_0based="_JSON [0, 1, 2, 3, 4, 5, 6, 7, 8, 9, 10, 11, 12, 13, 14, 15, 16, 17, 18, 19, 20, 31, 32, 33, 34, 35, 36, 37, 38, 39, 40]" complex_indices_1based="_JSON [1, 2, 3, 4, 5, 6, 7, 8, 9, 10, 11, 12, 13, 14, 15, 16, 17, 18, 19, 20, 21, 32, 33, 34, 35, 36, 37, 38, 39, 40, 41]" pbc="F F F"
Li      -1.23738300      -0.41009000      -1.56727100  F        0        1
C        2.78702300      -0.22255600       0.76395700  F        0        1
C        2.17863400       0.20367200       2.10159700  F        0        1
O        0.77300300       0.29518600       1.80475500  F        0        1
C        0.59164300       0.23389800       0.49200600  F        0        1
O        1.73057100       0.05062400      -0.17208900  F        0        1
O       -0.48380400       0.35736100      -0.04221300  F        0        1
H        3.65989500       0.35868000       0.47444600  F        0        1
H        3.00667000      -1.29025800       0.72315900  F        0        1
H        2.31039500      -0.53833800       2.88534100  F        0        1
H        2.51920500       1.18302700       2.44106500  F        0        1
C       -3.53291600       3.31475200      -4.42734100  F        0        1
C       -2.14990300       3.78977400      -3.97900200  F        0        1
O       -1.57878100       2.60215900      -3.39556200  F        0        1
C       -2.54609800       1.71168000      -3.17601700  F        0        1
O       -3.71596100       2.10375400      -3.66949100  F        0        1
O       -2.38229900       0.66776300      -2.59912500  F        0        1
H       -4.33662400       4.00280100      -4.17395100  F        0        1
H       -3.57578000       3.06142800      -5.48810000  F        0        1
H       -1.50929100       4.11174600      -4.79809500  F        0        1
H       -2.19200000       4.56043700      -3.20854500  F        0        1
C        0.75875800      -5.24606700       2.73043800  T        1        2
C        1.91284000      -4.31277800       3.10227700  T        1        2
O        1.61370900      -3.11894400       2.35813100  T        1        2
C        0.69687800      -3.39026900       1.41088400  T        1        2
O        0.23176900      -4.64833600       1.53349000  T        1        2
O        0.34627100      -2.61978800       0.57109800  T        1        2
H        1.07659200      -6.26000200       2.49768900  T        1        2
H       -0.02947100      -5.26490000       3.48570200  T        1        2
H        1.94213800      -4.06455500       4.16267300  T        1        2
H        2.88529900      -4.68626000       2.77744500  T        1        2
C       -1.31824700      -5.50185800      -1.37615100  F        0        1
C       -2.51613100      -4.89648900      -0.63571700  F        0        1
O       -2.34284400      -3.48219600      -0.83141300  F        0        1
C       -1.36795000      -3.26441300      -1.71035300  F        0        1
O       -0.78392800      -4.38754300      -2.11199900  F        0        1
O       -1.06069700      -2.17304200      -2.11747300  F        0        1
H       -0.54338200      -5.86121700      -0.70040600  F        0        1
H       -1.59329400      -6.27891900      -2.08656800  F        0        1
H       -3.47670700      -5.18343400      -1.06454300  F        0        1
H       -2.50580400      -5.09657800       0.43370600  F        0        1
41
Properties=species:S:1:pos:R:3:is_solvent:L:1:group_label:I:1:tags:I:1 Coordinates=T from=T ORCA-job=T Li1EC4_r03_charge_1_spin_1_liquid_t_traj_3_frame_0004=T E=T -1378.038793834939=T solvent_indices_0based="_JSON [21, 22, 23, 24, 25, 26, 27, 28, 29, 30]" complex_indices_0based="_JSON [0, 1, 2, 3, 4, 5, 6, 7, 8, 9, 10, 11, 12, 13, 14, 15, 16, 17, 18, 19, 20, 31, 32, 33, 34, 35, 36, 37, 38, 39, 40]" complex_indices_1based="_JSON [1, 2, 3, 4, 5, 6, 7, 8, 9, 10, 11, 12, 13, 14, 15, 16, 17, 18, 19, 20, 21, 32, 33, 34, 35, 36, 37, 38, 39, 40, 41]" pbc="F F F"
Li      -0.71207113      -0.12517508      -1.64687880  F        0        1
C        3.13434934      -1.03018801       0.60462549  F        0        1
C        2.76058776      -0.43929306       1.96279712  F        0        1
O        1.37539256      -0.08390167       1.78557385  F        0        1