41
Properties=species:S:1:pos:R:3:is_solvent:L:1:group_label:I:1:tags:I:1 Coordinates=T from=T ORCA-job=T Li1EC4_r10_charge_1_spin_1_liquid_t_traj_1_frame_0000=T E=T -1378.043672834087=T solvent_indices_0based="_JSON [1, 2, 3, 4, 5, 6, 7, 8, 9, 10]" complex_indices_0based="_JSON [0, 11, 12, 13, 14, 15, 16, 17, 18, 19, 20, 21, 22, 23, 24, 25, 26, 27, 28, 29, 30, 31, 32, 33, 34, 35, 36, 37, 38, 39, 40]" complex_indices_1based="_JSON [1, 12, 13, 14, 15, 16, 17, 18, 19, 20, 21, 22, 23, 24, 25, 26, 27, 28, 29, 30, 31, 32, 33, 34, 35, 36, 37, 38, 39, 40, 41]" pbc="F F F"
Li       0.55749540       0.23445191       0.58540025  F        0        1
C        5.31839464      -0.94111894      -1.02196832  T        1        2
C        5.12360887       0.53159849      -0.66036148  T        1        2
O        3.77703650       0.55952754      -0.15323283  T        1        2
C        3.14524184      -0.56049136      -0.51975257  T        1        2
O        3.96727384      -1.42805716      -1.10902544  T        1        2
O        1.97437923      -0.76403024      -0.34227557  T        1        2
H        5.80336606      -1.09619249      -1.98344080  T        1        2
H        5.83584951      -1.50608771      -0.24508833  T        1        2
H        5.79476524       0.88189578       0.12112995  T        1        2
H        5.17723324       1.19255425      -1.52691123  T        1        2
C       -0.53940346      -4.24325502       1.44941540  F        0        1
C       -2.05381834      -4.11533769       1.28116305  F        0        1
O       -2.20427683      -2.78278291       0.75765928  F        0        1
C       -1.07570416      -2.10246543       0.95251394  F        0        1
O       -0.10347392      -2.87153605       1.44583945  F        0        1
O       -0.95409882      -0.92956028       0.71315254  F        0        1
H       -0.24049954      -4.69811249       2.39150219  F        0        1
H       -0.05888327      -4.75601992       0.61487376  F        0        1
H       -2.47590754      -4.81665268       0.56444554  F        0        1
H       -2.59502573      -4.17373330       2.22671510  F        0        1
C       -2.05468181       4.46813194      -0.60569919  F        0        1
C       -2.80859834       3.42883429       0.22382262  F        0        1
O       -1.94203162       2.28318763       0.15738837  F        0        1
C       -0.73443430       2.66543854      -0.25870729  F        0        1
O       -0.71011621       3.95275413      -0.61240536  F        0        1
O        0.22304649       1.93999125      -0.31066812  F        0        1
H       -2.40459455       4.52567383      -1.63747022  F        0        1
H       -2.04243040       5.46080259      -0.16033701  F        0        1
H       -2.91773677       3.71492941       1.27120807  F        0        1
H       -3.77605059       3.15482033      -0.19167277  F        0        1
C        2.38574190       3.67284927       3.93352950  F        0        1
C        1.21829927       4.20855190       3.10544533  F        0        1
O        0.60787061       3.00485642       2.60429730  F        0        1
C        1.47491228       1.98935560       2.72398208  F        0        1
O        2.56216789       2.34523233       3.40864580  F        0        1
O        1.29366537       0.89103368       2.27590989  F        0        1
H        3.31150398       4.22662732       3.79211404  F        0        1
H        2.15434597       3.59370494       4.99678714  F        0        1
H        0.48072682       4.75210402       3.69248738  F        0        1
H        1.54081857       4.80831957       2.25259560  F        0        1
41
Properties=species:S:1:pos:R:3:is_solvent:L:1:group_label:I:1:tags:I:1 Coordinates=T from=T ORCA-job=T Li1EC4_r10_charge_1_spin_1_liquid_t_traj_1_frame_0000=T E=T -1378.043672834087=T solvent_indices_0based="_JSON [1, 2, 3, 4, 5, 6, 7, 8, 9, 10]" complex_indices_0based="_JSON [0, 11, 12, 13, 14, 15, 16, 17, 18, 19, 20, 21, 22, 23, 24, 25, 26, 27, 28, 29, 30, 31, 32, 33, 34, 35, 36, 37, 38, 39, 40]" complex_indices_1based="_JSON [1, 12, 13, 14, 15, 16, 17, 18, 19, 20, 21, 22, 23, 24, 25, 26, 27, 28, 29, 30, 31, 32, 33, 34, 35, 36, 37, 38, 39, 40, 41]" pbc="F F F"
Li       0.55749500       0.23445200       0.58540000  F        0        1
C        5.31839500      -0.94111900      -1.02196800  T        1        2
C        5.12360900       0.53159800      -0.66036100  T        1        2
O        3.77703700       0.55952800      -0.15323300  T        1        2
C        3.14524200      -0.56049100      -0.51975300  T        1        2
O        3.96727400      -1.42805700      -1.10902500  T        1        2
O        1.97437900      -0.76403000      -0.34227600  T        1        2
H        5.80336600      -1.09619200      -1.98344100  T        1        2
H        5.83585000      -1.50608800      -0.24508800  T        1        2
H        5.79476500       0.88189600       0.12113000  T        1        2
H        5.17723300       1.19255400      -1.52691100  T        1        2
C       -0.53940300      -4.24325500       1.44941500  F        0        1
C       -2.05381800      -4.11533800       1.28116300  F        0        1
O       -2.20427700      -2.78278300       0.75765900  F        0        1
C       -1.07570400      -2.10246500       0.95251400  F        0        1
O       -0.10347400      -2.87153600       1.44583900  F        0        1
O       -0.95409900      -0.92956000       0.71315300  F        0        1
H       -0.24050000      -4.69811200       2.39150200  F        0        1
H       -0.05888300      -4.75602000       0.61487400  F        0        1
H       -2.47590800      -4.81665300       0.56444600  F        0        1
H       -2.59502600      -4.17373300       2.22671500  F        0        1
C       -2.05468200       4.46813200      -0.60569900  F        0        1
C       -2.80859800       3.42883400       0.22382300  F        0        1
O       -1.94203200       2.28318800       0.15738800  F        0        1
C       -0.73443400       2.66543900      -0.25870700  F        0        1
O       -0.71011600       3.95275400      -0.61240500  F        0        1
O        0.22304600       1.93999100      -0.31066800  F        0        1
H       -2.40459500       4.52567400      -1.63747000  F        0        1
H       -2.04243000       5.46080300      -0.16033700  F        0        1
H       -2.91773700       3.71492900       1.27120800  F        0        1
H       -3.77605100       3.15482000      -0.19167300  F        0        1
C        2.38574200       3.67284900       3.93353000  F        0        1
C        1.21829900       4.20855200       3.10544500  F        0        1
O        0.60787100       3.00485600       2.60429700  F        0        1
C        1.47491200       1.98935600       2.72398200  F        0        1
O        2.56216800       2.34523200       3.40864600  F        0        1
O        1.29366500       0.89103400       2.27591000  F        0        1
H        3.31150400       4.22662700       3.79211400  F        0        1
H        2.15434600       3.59370500       4.99678700  F        0        1
H        0.48072700       4.75210400       3.69248700  F        0        1
H        1.54081900       4.80832000       2.25259600  F        0        1
41
Properties=species:S:1:pos:R:3:is_solvent:L:1:group_label:I:1:tags:I:1 Coordinates=T from=T ORCA-job=T Li1EC4_r10_charge_1_spin_1_liquid_t_traj_1_frame_0001=T E=T -1378.039466419546=T solvent_indices_0based="_JSON [1, 2, 3, 4, 5, 6, 7, 8, 9, 10]" complex_indices_0based="_JSON [0, 11, 12, 13, 14, 15, 16, 17, 18, 19, 20, 21, 22, 23, 24, 25, 26, 27, 28, 29, 30, 31, 32, 33, 34, 35, 36, 37, 38, 39, 40]" complex_indices_1based="_JSON [1, 12, 13, 14, 15, 16, 17, 18, 19, 20, 21, 22, 23, 24, 25, 26, 27, 28, 29, 30, 31, 32, 33, 34, 35, 36, 37, 38, 39, 40, 41]" pbc="F F F"
Li       0.56490355       1.21917968       1.11628864  F        0        1
C        4.51545861      -1.23798292      -1.32593826  T        1        2
C        4.28138850       0.23454318      -1.66482540  T        1        2
O        3.02765814       0.51682263      -1.01784756  T        1        2
C        2.42639780      -0.62990456      -0.68685493  T        1        2
O        3.20818442      -1.68939026      -0.92984752  T        1        2
O        1.31884929      -0.70438627      -0.23002360  T        1        2
H        4.84385899      -1.83383960      -2.17518655  T        1        2
H        5.19562414      -1.37707835      -0.48444379  T        1        2
H        5.03683251       0.90197187      -1.25515556  T        1        2
H        4.16195691       0.41439689      -2.73419424  T        1        2
C        0.07771561      -3.16774654       1.81215722  F        0        1
C       -1.30788184      -3.24344755       1.17377506  F        0        1
O       -1.62604556      -1.85673262       0.94844385  F        0        1
C       -0.79667196      -1.09599680       1.65616077  F        0        1
O        0.11974974      -1.81453582       2.30294047  F        0        1
O       -0.87263478       0.10689061       1.71359934  F        0        1
H        0.21289523      -3.84335551       2.65387092  F        0        1
H        0.88386400      -3.28608416       1.08701165  F        0        1
H       -1.31891458      -3.75718672       0.21492546  F        0        1
H       -2.06436435      -3.66458118       1.83762928  F        0        1
C       -2.58814500       3.95630706      -1.73821586  F        0        1
C       -2.77465561       2.44058666      -1.81002015  F        0        1
O       -1.57351219       1.94561744      -1.18614210  F        0        1
C       -0.99857232       2.93187398      -0.49974382  F        0        1
O       -1.58797142       4.10534367      -0.71198671  F        0        1
O       -0.04922862       2.78306380       0.22863014  F        0        1
H       -2.19443404       4.38141881      -2.66248364  F        0        1
H       -3.48089989       4.49457327      -1.42740579  F        0        1
H       -3.62808292       2.08428894      -1.23176152  F        0        1
H       -2.81935202       2.05260004      -2.82532651  F        0        1
C        3.41754768       2.74328922       5.03525429  F        0        1
C        2.02275586       3.36457789       4.95122713  F        0        1
O        1.41655286       2.63537747       3.86673163  F        0        1
C        2.36439976       2.00467967       3.17489550  F        0        1
O        3.55964376       2.10162634       3.75143841  F        0        1
O        2.16380646       1.41299893       2.14427000  F        0        1
H        4.21767530       3.47238041       5.14278138  F        0        1
H        3.49847724       1.97772167       5.80789053  F        0        1
H        1.42223664       3.21282484       5.84555719  F        0        1
H        2.03963003       4.42180747       4.68382071  F        0        1
41
Properties=species:S:1:pos:R:3:is_solvent:L:1:group_label:I:1:tags:I:1 Coordinates=T from=T ORCA-job=T Li1EC4_r10_charge_1_spin_1_liquid_t_traj_1_frame_0001=T E=T -1378.039466419546=T solvent_indices_0based="_JSON [1, 2, 3, 4, 5, 6, 7, 8, 9, 10]" complex_indices_0based="_JSON [0, 11, 12, 13, 14, 15, 16, 17, 18, 19, 20, 21, 22, 23, 24, 25, 26, 27, 28, 29, 30, 31, 32, 33, 34, 35, 36, 37, 38, 39, 40]" complex_indices_1based="_JSON [1, 12, 13, 14, 15, 16, 17, 18, 19, 20, 21, 22, 23, 24, 25, 26, 27, 28, 29, 30, 31, 32, 33, 34, 35, 36, 37, 38, 39, 40, 41]" pbc="F F F"
Li       0.56490400       1.21918000       1.11628900  F        0        1
C        4.51545900      -1.23798300      -1.32593800  T        1        2
C        4.28138800       0.23454300      -1.66482500  T        1        2
O        3.02765800       0.51682300      -1.01784800  T        1        2
C        2.42639800      -0.62990500      -0.68685500  T        1        2
O        3.20818400      -1.68939000      -0.92984800  T        1        2
O        1.31884900      -0.70438600      -0.23002400  T        1        2
H        4.84385900      -1.83384000      -2.17518700  T        1        2
H        5.19562400      -1.37707800      -0.48444400  T        1        2
H        5.03683300       0.90197200      -1.25515600  T        1        2
H        4.16195700       0.41439700      -2.73419400  T        1        2
C        0.07771600      -3.16774700       1.81215700  F        0        1
C       -1.30788200      -3.24344800       1.17377500  F        0        1
O       -1.62604600      -1.85673300       0.94844400  F        0        1
C       -0.79667200      -1.09599700       1.65616100  F        0        1
O        0.11975000      -1.81453600       2.30294000  F        0        1
O       -0.87263500       0.10689100       1.71359900  F        0        1
H        0.21289500      -3.84335600       2.65387100  F        0        1
H        0.88386400      -3.28608400       1.08701200  F        0        1
H       -1.31891500      -3.75718700       0.21492500  F        0        1
H       -2.06436400      -3.66458100       1.83762900  F        0        1
C       -2.58814500       3.95630700      -1.73821600  F        0        1
C       -2.77465600       2.44058700      -1.81002000  F        0        1
O       -1.57351200       1.94561700      -1.18614200  F        0        1
C       -0.99857200       2.93187400      -0.49974400  F        0        1
O       -1.58797100       4.10534400      -0.71198700  F        0        1
O       -0.04922900       2.78306400       0.22863000  F        0        1
H       -2.19443400       4.38141900      -2.66248400  F        0        1
H       -3.48090000       4.49457300      -1.42740600  F        0        1
H       -3.62808300       2.08428900      -1.23176200  F        0        1
H       -2.81935200       2.05260000      -2.82532700  F        0        1
C        3.41754800       2.74328900       5.03525400  F        0        1
C        2.02275600       3.36457800       4.95122700  F        0        1
O        1.41655300       2.63537700       3.86673200  F        0        1
C        2.36440000       2.00468000       3.17489600  F        0        1
O        3.55964400       2.10162600       3.75143800  F        0        1
O        2.16380600       1.41299900       2.14427000  F        0        1
H        4.21767500       3.47238000       5.14278100  F        0        1
H        3.49847700       1.97772200       5.80789100  F        0        1
H        1.42223700       3.21282500       5.84555700  F        0        1
H        2.03963000       4.42180700       4.68382100  F        0        1
41
Properties=species:S:1:pos:R:3:is_solvent:L:1:group_label:I:1:tags:I:1 Coordinates=T from=T ORCA-job=T Li1EC4_r10_charge_1_spin_1_liquid_t_traj_1_frame_0002=T E=T -1378.036723730568=T solvent_indices_0based="_JSON [1, 2, 3, 4, 5, 6, 7, 8, 9, 10]" complex_indices_0based="_JSON [0, 11, 12, 13, 14, 15, 16, 17, 18, 19, 20, 21, 22, 23, 24, 25, 26, 27, 28, 29, 30, 31, 32, 33, 34, 35, 36, 37, 38, 39, 40]" complex_indices_1based="_JSON [1, 12, 13, 14, 15, 16, 17, 18, 19, 20, 21, 22, 23, 24, 25, 26, 27, 28, 29, 30, 31, 32, 33, 34, 35, 36, 37, 38, 39, 40, 41]" pbc="F F F"
Li       0.04504112       1.12571710       1.05837825  F        0        1
C        4.27307754      -1.97325622       2.04906434  T        1        2
C        4.95398536      -0.63654364       1.75308367  T        1        2
O        3.98768055       0.04541895       0.93424111  T        1        2
C        3.04423055      -0.82384142       0.52107852  T        1        2
O        3.25253709      -2.04346600       1.04083143  T        1        2
O        2.14521393      -0.53963648      -0.21164392  T        1        2
H        4.93211883      -2.83166223       1.93579559  T        1        2
H        3.79143212      -1.99480433       3.02772367  T        1        2
H        5.13058872      -0.03886065       2.64584391  T        1        2
H        5.87533229      -0.74422466       1.17879365  T        1        2
C        0.34733696      -3.58974709       0.01336514  F        0        1
C       -0.36185157      -3.28268964      -1.30747091  F        0        1
O       -0.70675932      -1.89142405      -1.17158610  F        0        1
C       -0.53751704      -1.51414836       0.08912996  F        0        1
O       -0.04302614      -2.48460404       0.85013822  F        0        1
O       -0.82734603      -0.41760174       0.50237843  F        0        1
H        0.01184184      -4.51087006       0.48546719  F        0        1
H        1.43339415      -3.57673490      -0.07226273  F        0        1
H        0.27809765      -3.39142115      -2.18057168  F        0        1
H       -1.28367242      -3.84968699      -1.44275535  F        0        1
C       -3.84843204       4.27254674      -0.02005730  F        0        1
C       -4.27471827       3.10367024       0.87068137  F        0        1
O       -3.05979549       2.33842474       0.99647543  F        0        1
C       -2.02886865       3.07723285       0.59237257  F        0        1
O       -2.41055915       4.23989333       0.07422553  F        0        1
O       -0.87584315       2.73695727       0.68900165  F        0        1
H       -4.12286155       4.13633857      -1.06670367  F        0        1
H       -4.19315496       5.24133181       0.33510288  F        0        1
H       -4.58411713       3.41646203       1.86861638  F        0        1
H       -5.03584363       2.46773952       0.42378190  F        0        1
C        4.26221100       3.44147068       2.21369060  F        0        1
C        3.77285205       3.48150582       0.76631851  F        0        1
O        2.48184696       2.85162930       0.85864285  F        0        1
C        2.41156589       2.16608462       1.99604232  F        0        1
O        3.44666812       2.40497156       2.79767216  F        0        1
O        1.50714324       1.41467787       2.26961187  F        0        1
H        5.30696715       3.15494352       2.31508372  F        0        1
H        4.07347972       4.36889979       2.75582698  F        0        1
H        3.63791514       4.48765143       0.37578097  F        0        1
H        4.38922309       2.88888979       0.08959582  F        0        1
41
Properties=species:S:1:pos:R:3:is_solvent:L:1:group_label:I:1:tags:I:1 Coordinates=T from=T ORCA-job=T Li1EC4_r10_charge_1_spin_1_liquid_t_traj_1_frame_0002=T E=T -1378.036723730568=T solvent_indices_0based="_JSON [1, 2, 3, 4, 5, 6, 7, 8, 9, 10]" complex_indices_0based="_JSON [0, 11, 12, 13, 14, 15, 16, 17, 18, 19, 20, 21, 22, 23, 24, 25, 26, 27, 28, 29, 30, 31, 32, 33, 34, 35, 36, 37, 38, 39, 40]" complex_indices_1based="_JSON [1, 12, 13, 14, 15, 16, 17, 18, 19, 20, 21, 22, 23, 24, 25, 26, 27, 28, 29, 30, 31, 32, 33, 34, 35, 36, 37, 38, 39, 40, 41]" pbc="F F F"
Li       0.04504100       1.12571700       1.05837800  F        0        1
C        4.27307800      -1.97325600       2.04906400  T        1        2
C        4.95398500      -0.63654400       1.75308400  T        1        2
O        3.98768100       0.04541900       0.93424100  T        1        2
C        3.04423100      -0.82384100       0.52107900  T        1        2
O        3.25253700      -2.04346600       1.04083100  T        1        2
O        2.14521400      -0.53963600      -0.21164400  T        1        2
H        4.93211900      -2.83166200       1.93579600  T        1        2
H        3.79143200      -1.99480400       3.02772400  T        1        2
H        5.13058900      -0.03886100       2.64584400  T        1        2
H        5.87533200      -0.74422500       1.17879400  T        1        2
C        0.34733700      -3.58974700       0.01336500  F        0        1
C       -0.36185200      -3.28269000      -1.30747100  F        0        1
O       -0.70675900      -1.89142400      -1.17158600  F        0        1
C       -0.53751700      -1.51414800       0.08913000  F        0        1
O       -0.04302600      -2.48460400       0.85013800  F        0        1
O       -0.82734600      -0.41760200       0.50237800  F        0        1
H        0.01184200      -4.51087000       0.48546700  F        0        1
H        1.43339400      -3.57673500      -0.07226300  F        0        1
H        0.27809800      -3.39142100      -2.18057200  F        0        1
H       -1.28367200      -3.84968700      -1.44275500  F        0        1
C       -3.84843200       4.27254700      -0.02005700  F        0        1
C       -4.27471800       3.10367000       0.87068100  F        0        1
O       -3.05979500       2.33842500       0.99647500  F        0        1
C       -2.02886900       3.07723300       0.59237300  F        0        1
O       -2.41055900       4.23989300       0.07422600  F        0        1
O       -0.87584300       2.73695700       0.68900200  F        0        1
H       -4.12286200       4.13633900      -1.06670400  F        0        1
H       -4.19315500       5.24133200       0.33510300  F        0        1
H       -4.58411700       3.41646200       1.86861600  F        0        1
H       -5.03584400       2.46774000       0.42378200  F        0        1
C        4.26221100       3.44147100       2.21369100  F        0        1
C        3.77285200       3.48150600       0.76631900  F        0        1
O        2.48184700       2.85162900       0.85864300  F        0        1
C        2.41156600       2.16608500       1.99604200  F        0        1
O        3.44666800       2.40497200       2.79767200  F        0        1
O        1.50714300       1.41467800       2.26961200  F        0        1
H        5.30696700       3.15494400       2.31508400  F        0        1
H        4.07348000       4.36890000       2.75582700  F        0        1
H        3.63791500       4.48765100       0.37578100  F        0        1
H        4.38922300       2.88889000       0.08959600  F        0        1
41
Properties=species:S:1:pos:R:3:is_solvent:L:1:group_label:I:1:tags:I:1 Coordinates=T from=T ORCA-job=T Li1EC4_r10_charge_1_spin_1_liquid_t_traj_1_frame_0003=T E=T -1378.037224300856=T solvent_indices_0based="_JSON [1, 2, 3, 4, 5, 6, 7, 8, 9, 10]" complex_indices_0based="_JSON [0, 11, 12, 13, 14, 15, 16, 17, 18, 19, 20, 21, 22, 23, 24, 25, 26, 27, 28, 29, 30, 31, 32, 33, 34, 35, 36, 37, 38, 39, 40]" complex_indices_1based="_JSON [1, 12, 13, 14, 15, 16, 17, 18, 19, 20, 21, 22, 23, 24, 25, 26, 27, 28, 29, 30, 31, 32, 33, 34, 35, 36, 37, 38, 39, 40, 41]" pbc="F F F"
Li      -0.33350980       1.50737759       0.94658893  F        0        1
C        4.86738719      -2.61797670       1.58165680  T        1        2
C        5.72903672      -1.35957373       1.50374023  T        1        2
O        4.75246100      -0.31901519       1.32181262  T        1        2
C        3.59186312      -0.85755398       0.91201431  T        1        2
O        3.64405921      -2.20262967       0.94829284  T        1        2
O        2.63996250      -0.22997361       0.55525006  T        1        2
H        5.27612367      -3.46170170       1.02952655  T        1        2
H        4.64233919      -2.91365525       2.60777100  T        1        2
H        6.28597604      -1.15580486       2.41621565  T        1        2
H        6.40125163      -1.35717065       0.64410490  T        1        2
C        0.44449683      -3.24794462       0.45443565  F        0        1
C        0.88479052      -3.00709990      -0.99154163  F        0        1
O        0.32241946      -1.71714903      -1.29280402  F        0        1
C       -0.07281318      -1.13482442      -0.16741589  F        0        1
O        0.00901518      -1.94522322       0.88270542  F        0        1
O       -0.49074154      -0.00482949      -0.11207390  F        0        1
H       -0.39880903      -3.93389231       0.54504844  F        0        1
H        1.25810601      -3.56587663       1.10223846  F        0        1
H        1.96700902      -2.93444301      -1.09441967  F        0        1
H        0.48249115      -3.72993649      -1.69835646  F        0        1
C       -4.46722635       4.56846925       0.05083859  F        0        1
C       -4.92275948       3.33459406       0.83355249  F        0        1
O       -3.72300608       2.53811262       0.90177695  F        0        1
C       -2.67489544       3.28961727       0.56833495  F        0        1
O       -3.03173979       4.49843167       0.14753874  F        0        1
O       -1.53092955       2.91981544       0.64107682  F        0        1
H       -4.74298608       4.53211975      -1.00405541  F        0        1
H       -4.79396204       5.50899952       0.48976877  F        0        1
H       -5.23656177       3.56573220       1.85200791  F        0        1
H       -5.69057894       2.75393725       0.32672623  F        0        1
C        4.22601591       2.90607978       1.94531082  F        0        1
C        3.68129126       3.01638394       0.52109675  F        0        1
O        2.26816025       2.82089026       0.71269550  F        0        1
C        2.06795865       2.24731780       1.89876945  F        0        1
O        3.16825768       2.21809515       2.63988789  F        0        1
O        0.99891239       1.81712295       2.25666072  F        0        1
H        5.12729204       2.30273412       2.01705745  F        0        1
H        4.37439832       3.87495536       2.42379067  F        0        1
H        3.83399348       3.99207120       0.06515934  F        0        1
H        4.04358381       2.22337142      -0.13311102  F        0        1
41
Properties=species:S:1:pos:R:3:is_solvent:L:1:group_label:I:1:tags:I:1 Coordinates=T from=T ORCA-job=T Li1EC4_r10_charge_1_spin_1_liquid_t_traj_1_frame_0003=T E=T -1378.037224300856=T solvent_indices_0based="_JSON [1, 2, 3, 4, 5, 6, 7, 8, 9, 10]" complex_indices_0based="_JSON [0, 11, 12, 13, 14, 15, 16, 17, 18, 19, 20, 21, 22, 23, 24, 25, 26, 27, 28, 29, 30, 31, 32, 33, 34, 35, 36, 37, 38, 39, 40]" complex_indices_1based="_JSON [1, 12, 13, 14, 15, 16, 17, 18, 19, 20, 21, 22, 23, 24, 25, 26, 27, 28, 29, 30, 31, 32, 33, 34, 35, 36, 37, 38, 39, 40, 41]" pbc="F F F"
Li      -0.33351000       1.50737800       0.94658900  F        0        1
C        4.86738700      -2.61797700       1.58165700  T        1        2
C        5.72903700      -1.35957400       1.50374000  T        1        2
O        4.75246100      -0.31901500       1.32181300  T        1        2
C        3.59186300      -0.85755400       0.91201400  T        1        2
O        3.64405900      -2.20263000       0.94829300  T        1        2
O        2.63996200      -0.22997400       0.55525000  T        1        2
H        5.27612400      -3.46170200       1.02952700  T        1        2
H        4.64233900      -2.91365500       2.60777100  T        1        2
H        6.28597600      -1.15580500       2.41621600  T        1        2
H        6.40125200      -1.35717100       0.64410500  T        1        2
C        0.44449700      -3.24794500       0.45443600  F        0        1
C        0.88479100      -3.00710000      -0.99154200  F        0        1
O        0.32241900      -1.71714900      -1.29280400  F        0        1
C       -0.07281300      -1.13482400      -0.16741600  F        0        1
O        0.00901500      -1.94522300       0.88270500  F        0        1
O       -0.49074200      -0.00482900      -0.11207400  F        0        1
H       -0.39880900      -3.93389200       0.54504800  F        0        1
H        1.25810600      -3.56587700       1.10223800  F        0        1
H        1.96700900      -2.93444300      -1.09442000  F        0        1
H        0.48249100      -3.72993600      -1.69835600  F        0        1
C       -4.46722600       4.56846900       0.05083900  F        0        1
C       -4.92275900       3.33459400       0.83355200  F        0        1
O       -3.72300600       2.53811300       0.90177700  F        0        1
C       -2.67489500       3.28961700       0.56833500  F        0        1
O       -3.03174000       4.49843200       0.14753900  F        0        1
O       -1.53093000       2.91981500       0.64107700  F        0        1
H       -4.74298600       4.53212000      -1.00405500  F        0        1
H       -4.79396200       5.50900000       0.48976900  F        0        1
H       -5.23656200       3.56573200       1.85200800  F        0        1
H       -5.69057900       2.75393700       0.32672600  F        0        1
C        4.22601600       2.90608000       1.94531100  F        0        1
C        3.68129100       3.01638400       0.52109700  F        0        1
O        2.26816000       2.82089000       0.71269600  F        0        1
C        2.06795900       2.24731800       1.89876900  F        0        1
O        3.16825800       2.21809500       2.63988800  F        0        1
O        0.99891200       1.81712300       2.25666100  F        0        1
H        5.12729200       2.30273400       2.01705700  F        0        1
H        4.37439800       3.87495500       2.42379100  F        0        1
H        3.83399300       3.99207100       0.06515900  F        0        1
H        4.04358400       2.22337100      -0.13311100  F        0        1
41
Properties=species:S:1:pos:R:3:is_solvent:L:1:group_label:I:1:tags:I:1 Coordinates=T from=T ORCA-job=T Li1EC4_r10_charge_1_spin_1_liquid_t_traj_1_frame_0004=T E=T -1378.033191297775=T solvent_indices_0based="_JSON [1, 2, 3, 4, 5, 6, 7, 8, 9, 10]" complex_indices_0based="_JSON [0, 11, 12, 13, 14, 15, 16, 17, 18, 19, 20, 21, 22, 23, 24, 25, 26, 27, 28, 29, 30, 31, 32, 33, 34, 35, 36, 37, 38, 39, 40]" complex_indices_1based="_JSON [1, 12, 13, 14, 15, 16, 17, 18, 19, 20, 21, 22, 23, 24, 25, 26, 27, 28, 29, 30, 31, 32, 33, 34, 35, 36, 37, 38, 39, 40, 41]" pbc="F F F"
Li      -0.16194839       1.41448357       1.05781421  F        0        1
C        5.65704753      -2.69495627      -0.34304206  T        1        2
C        5.94806004      -1.20468588      -0.49865265  T        1        2