41
Properties=species:S:1:pos:R:3:is_solvent:L:1:group_label:I:1:tags:I:1 Coordinates=T from=T ORCA-job=T Li1EC4_r09_charge_1_spin_1_liquid_t_traj_1_frame_0000=T E=T -1378.044576992024=T solvent_indices_0based="_JSON [1, 2, 3, 4, 5, 6, 7, 8, 9, 10]" complex_indices_0based="_JSON [0, 11, 12, 13, 14, 15, 16, 17, 18, 19, 20, 21, 22, 23, 24, 25, 26, 27, 28, 29, 30, 31, 32, 33, 34, 35, 36, 37, 38, 39, 40]" complex_indices_1based="_JSON [1, 12, 13, 14, 15, 16, 17, 18, 19, 20, 21, 22, 23, 24, 25, 26, 27, 28, 29, 30, 31, 32, 33, 34, 35, 36, 37, 38, 39, 40, 41]" pbc="F F F"
Li       0.03207732       0.18020127       0.03018248  F        0        1
C        4.29728604      -0.82780567       2.60822932  T        1        2
C        4.17213931       0.62829575       2.15699258  T        1        2
O        2.91307821       0.64068058       1.46021981  T        1        2
C        2.53318347      -0.61287518       1.20469135  T        1        2
O        3.34583214      -1.50757409       1.76853534  T        1        2
O        1.57434458      -0.90653713       0.54020018  T        1        2
H        5.28041781      -1.25854885       2.43050043  T        1        2
H        4.00312805      -0.97809488       3.64779089  T        1        2
H        4.11519289       1.33651925       2.98097288  T        1        2
H        4.95321079       0.92734513       1.45672146  T        1        2
C       -2.52347796       3.59172749       2.79709060  F        0        1
C       -3.00247258       3.39442052       1.35886163  F        0        1
O       -2.31871407       2.19266108       0.95918658  F        0        1
C       -1.31420549       1.95461055       1.80634409  F        0        1
O       -1.33205386       2.78437045       2.84942714  F        0        1
O       -0.49202586       1.09037621       1.65117006  F        0        1
H       -2.25220752       4.61921248       3.03003779  F        0        1
H       -3.22649825       3.21058250       3.53904951  F        0        1
H       -4.07371345       3.22538492       1.27262655  F        0        1
H       -2.69250117       4.20104172       0.69300571  F        0        1
C       -2.06562195      -3.90308821       0.88720693  F        0        1
C       -2.21551288      -4.31596642      -0.57785926  F        0        1
O       -2.06066603      -3.06884874      -1.28064656  F        0        1
C       -1.53276699      -2.16057214      -0.45989606  F        0        1
O       -1.43982621      -2.61002239       0.79318679  F        0        1
O       -1.18891689      -1.06218870      -0.81052476  F        0        1
H       -3.02193542      -3.78290128       1.39795318  F        0        1
H       -1.41349684      -4.55904463       1.46007036  F        0        1
H       -1.42932443      -4.99446269      -0.91147158  F        0        1
H       -3.19351029      -4.72681435      -0.81935895  F        0        1
C        0.62966704       0.62652657      -4.53028090  F        0        1
C        0.42327321       2.13575010      -4.64515604  F        0        1
O        0.02879709       2.50264833      -3.30914994  F        0        1
C        0.35022969       1.51704242      -2.47010821  F        0        1
O        0.80718740       0.44054441      -3.11384176  F        0        1
O        0.24462858       1.59477503      -1.27418780  F        0        1
H       -0.24474771       0.05336253      -4.84223088  F        0        1
H        1.51986754       0.26430288      -5.03986655  F        0        1
H        1.33940324       2.67525512      -4.89001572  F        0        1
H       -0.37406897       2.41838993      -5.32907380  F        0        1
41
Properties=species:S:1:pos:R:3:is_solvent:L:1:group_label:I:1:tags:I:1 Coordinates=T from=T ORCA-job=T Li1EC4_r09_charge_1_spin_1_liquid_t_traj_1_frame_0000=T E=T -1378.044576992024=T solvent_indices_0based="_JSON [1, 2, 3, 4, 5, 6, 7, 8, 9, 10]" complex_indices_0based="_JSON [0, 11, 12, 13, 14, 15, 16, 17, 18, 19, 20, 21, 22, 23, 24, 25, 26, 27, 28, 29, 30, 31, 32, 33, 34, 35, 36, 37, 38, 39, 40]" complex_indices_1based="_JSON [1, 12, 13, 14, 15, 16, 17, 18, 19, 20, 21, 22, 23, 24, 25, 26, 27, 28, 29, 30, 31, 32, 33, 34, 35, 36, 37, 38, 39, 40, 41]" pbc="F F F"
Li       0.03207700       0.18020100       0.03018200  F        0        1
C        4.29728600      -0.82780600       2.60822900  T        1        2
C        4.17213900       0.62829600       2.15699300  T        1        2
O        2.91307800       0.64068100       1.46022000  T        1        2
C        2.53318300      -0.61287500       1.20469100  T        1        2
O        3.34583200      -1.50757400       1.76853500  T        1        2
O        1.57434500      -0.90653700       0.54020000  T        1        2
H        5.28041800      -1.25854900       2.43050000  T        1        2
H        4.00312800      -0.97809500       3.64779100  T        1        2
H        4.11519300       1.33651900       2.98097300  T        1        2
H        4.95321100       0.92734500       1.45672100  T        1        2
C       -2.52347800       3.59172700       2.79709100  F        0        1
C       -3.00247300       3.39442100       1.35886200  F        0        1
O       -2.31871400       2.19266100       0.95918700  F        0        1
C       -1.31420500       1.95461100       1.80634400  F        0        1
O       -1.33205400       2.78437000       2.84942700  F        0        1
O       -0.49202600       1.09037600       1.65117000  F        0        1
H       -2.25220800       4.61921200       3.03003800  F        0        1
H       -3.22649800       3.21058200       3.53905000  F        0        1
H       -4.07371300       3.22538500       1.27262700  F        0        1
H       -2.69250100       4.20104200       0.69300600  F        0        1
C       -2.06562200      -3.90308800       0.88720700  F        0        1
C       -2.21551300      -4.31596600      -0.57785900  F        0        1
O       -2.06066600      -3.06884900      -1.28064700  F        0        1
C       -1.53276700      -2.16057200      -0.45989600  F        0        1
O       -1.43982600      -2.61002200       0.79318700  F        0        1
O       -1.18891700      -1.06218900      -0.81052500  F        0        1
H       -3.02193500      -3.78290100       1.39795300  F        0        1
H       -1.41349700      -4.55904500       1.46007000  F        0        1
H       -1.42932400      -4.99446300      -0.91147200  F        0        1
H       -3.19351000      -4.72681400      -0.81935900  F        0        1
C        0.62966700       0.62652700      -4.53028100  F        0        1
C        0.42327300       2.13575000      -4.64515600  F        0        1
O        0.02879700       2.50264800      -3.30915000  F        0        1
C        0.35023000       1.51704200      -2.47010800  F        0        1
O        0.80718700       0.44054400      -3.11384200  F        0        1
O        0.24462900       1.59477500      -1.27418800  F        0        1
H       -0.24474800       0.05336300      -4.84223100  F        0        1
H        1.51986800       0.26430300      -5.03986700  F        0        1
H        1.33940300       2.67525500      -4.89001600  F        0        1
H       -0.37406900       2.41839000      -5.32907400  F        0        1
41
Properties=species:S:1:pos:R:3:is_solvent:L:1:group_label:I:1:tags:I:1 Coordinates=T from=T ORCA-job=T Li1EC4_r09_charge_1_spin_1_liquid_t_traj_1_frame_0001=T E=T -1378.039006227705=T solvent_indices_0based="_JSON [1, 2, 3, 4, 5, 6, 7, 8, 9, 10]" complex_indices_0based="_JSON [0, 11, 12, 13, 14, 15, 16, 17, 18, 19, 20, 21, 22, 23, 24, 25, 26, 27, 28, 29, 30, 31, 32, 33, 34, 35, 36, 37, 38, 39, 40]" complex_indices_1based="_JSON [1, 12, 13, 14, 15, 16, 17, 18, 19, 20, 21, 22, 23, 24, 25, 26, 27, 28, 29, 30, 31, 32, 33, 34, 35, 36, 37, 38, 39, 40, 41]" pbc="F F F"
Li      -0.36883549       0.51966648      -0.11636649  F        0        1
C        3.62540233      -1.31710215       2.81179007  T        1        2
C        3.71220473       0.08764949       2.21087557  T        1        2
O        2.54036251       0.15343468       1.37961337  T        1        2
C        2.04425889      -1.07511680       1.20629605  T        1        2
O        2.69566358      -1.98353309       1.93975808  T        1        2
O        1.12621893      -1.33428460       0.47675358  T        1        2
H        4.56817665      -1.86011525       2.79223409  T        1        2
H        3.21208039      -1.32146044       3.82146084  T        1        2
H        3.65440761       0.88226029       2.95206507  T        1        2
H        4.58947760       0.22929257       1.57792825  T        1        2
C       -2.35202172       3.70299629       3.29608679  F        0        1
C       -2.81588051       3.89760433       1.85183035  F        0        1
O       -2.26447723       2.74550412       1.18454096  F        0        1
C       -1.32990661       2.19423741       1.95773156  F        0        1
O       -1.27032042       2.76023479       3.16002000  F        0        1
O       -0.61743342       1.28636466       1.61027662  F        0        1
H       -1.96250453       4.60769848       3.75787340  F        0        1
H       -3.11542885       3.25460762       3.93334893  F        0        1
H       -3.89702636       3.87917154       1.73220724  F        0        1
H       -2.40129172       4.79156916       1.38415577  F        0        1
C       -1.53205055      -3.89169960       0.55107953  F        0        1
C       -0.74098926      -4.09568394      -0.74294294  F        0        1
O       -0.96766395      -2.86601403      -1.45478824  F        0        1
C       -1.42677851      -1.95022906      -0.60697828  F        0        1
O       -1.75124822      -2.46990017       0.57325427  F        0        1
O       -1.54404387      -0.78032866      -0.88015037  F        0        1
H       -2.50410912      -4.38644727       0.54420730  F        0        1
H       -0.97746782      -4.16626226       1.44611553  F        0        1
H        0.33140974      -4.19254586      -0.57153479  F        0        1
H       -1.10545181      -4.92026071      -1.35226866  F        0        1
C        0.78237472       0.37638585      -4.54895723  F        0        1
C        0.69843642       1.87345825      -4.84689921  F        0        1
O        0.22962971       2.41831671      -3.59806878  F        0        1
C        0.39866347       1.51578052      -2.63539777  F        0        1
O        0.82084794       0.34436261      -3.10939719  F        0        1
O        0.19655360       1.73741877      -1.46782661  F        0        1
H       -0.10005390      -0.17477894      -4.87711542  F        0        1
H        1.68483956      -0.09794188      -4.92836258  F        0        1
H        1.66814288       2.32052446      -5.07060196  F        0        1
H       -0.02002539       2.12683649      -5.62341280  F        0        1
41
Properties=species:S:1:pos:R:3:is_solvent:L:1:group_label:I:1:tags:I:1 Coordinates=T from=T ORCA-job=T Li1EC4_r09_charge_1_spin_1_liquid_t_traj_1_frame_0001=T E=T -1378.039006227705=T solvent_indices_0based="_JSON [1, 2, 3, 4, 5, 6, 7, 8, 9, 10]" complex_indices_0based="_JSON [0, 11, 12, 13, 14, 15, 16, 17, 18, 19, 20, 21, 22, 23, 24, 25, 26, 27, 28, 29, 30, 31, 32, 33, 34, 35, 36, 37, 38, 39, 40]" complex_indices_1based="_JSON [1, 12, 13, 14, 15, 16, 17, 18, 19, 20, 21, 22, 23, 24, 25, 26, 27, 28, 29, 30, 31, 32, 33, 34, 35, 36, 37, 38, 39, 40, 41]" pbc="F F F"
Li      -0.36883500       0.51966600      -0.11636600  F        0        1
C        3.62540200      -1.31710200       2.81179000  T        1        2
C        3.71220500       0.08764900       2.21087600  T        1        2
O        2.54036300       0.15343500       1.37961300  T        1        2
C        2.04425900      -1.07511700       1.20629600  T        1        2
O        2.69566400      -1.98353300       1.93975800  T        1        2
O        1.12621900      -1.33428500       0.47675400  T        1        2
H        4.56817700      -1.86011500       2.79223400  T        1        2
H        3.21208000      -1.32146000       3.82146100  T        1        2
H        3.65440800       0.88226000       2.95206500  T        1        2
H        4.58947800       0.22929300       1.57792800  T        1        2
C       -2.35202200       3.70299600       3.29608700  F        0        1
C       -2.81588100       3.89760400       1.85183000  F        0        1
O       -2.26447700       2.74550400       1.18454100  F        0        1
C       -1.32990700       2.19423700       1.95773200  F        0        1
O       -1.27032000       2.76023500       3.16002000  F        0        1
O       -0.61743300       1.28636500       1.61027700  F        0        1
H       -1.96250500       4.60769800       3.75787300  F        0        1
H       -3.11542900       3.25460800       3.93334900  F        0        1
H       -3.89702600       3.87917200       1.73220700  F        0        1
H       -2.40129200       4.79156900       1.38415600  F        0        1
C       -1.53205100      -3.89170000       0.55108000  F        0        1
C       -0.74098900      -4.09568400      -0.74294300  F        0        1
O       -0.96766400      -2.86601400      -1.45478800  F        0        1
C       -1.42677900      -1.95022900      -0.60697800  F        0        1
O       -1.75124800      -2.46990000       0.57325400  F        0        1
O       -1.54404400      -0.78032900      -0.88015000  F        0        1
H       -2.50410900      -4.38644700       0.54420700  F        0        1
H       -0.97746800      -4.16626200       1.44611600  F        0        1
H        0.33141000      -4.19254600      -0.57153500  F        0        1
H       -1.10545200      -4.92026100      -1.35226900  F        0        1
C        0.78237500       0.37638600      -4.54895700  F        0        1
C        0.69843600       1.87345800      -4.84689900  F        0        1
O        0.22963000       2.41831700      -3.59806900  F        0        1
C        0.39866300       1.51578100      -2.63539800  F        0        1
O        0.82084800       0.34436300      -3.10939700  F        0        1
O        0.19655400       1.73741900      -1.46782700  F        0        1
H       -0.10005400      -0.17477900      -4.87711500  F        0        1
H        1.68484000      -0.09794200      -4.92836300  F        0        1
H        1.66814300       2.32052400      -5.07060200  F        0        1
H       -0.02002500       2.12683600      -5.62341300  F        0        1
41
Properties=species:S:1:pos:R:3:is_solvent:L:1:group_label:I:1:tags:I:1 Coordinates=T from=T ORCA-job=T Li1EC4_r09_charge_1_spin_1_liquid_t_traj_1_frame_0002=T E=T -1378.041938662065=T solvent_indices_0based="_JSON [1, 2, 3, 4, 5, 6, 7, 8, 9, 10]" complex_indices_0based="_JSON [0, 11, 12, 13, 14, 15, 16, 17, 18, 19, 20, 21, 22, 23, 24, 25, 26, 27, 28, 29, 30, 31, 32, 33, 34, 35, 36, 37, 38, 39, 40]" complex_indices_1based="_JSON [1, 12, 13, 14, 15, 16, 17, 18, 19, 20, 21, 22, 23, 24, 25, 26, 27, 28, 29, 30, 31, 32, 33, 34, 35, 36, 37, 38, 39, 40, 41]" pbc="F F F"
Li       0.16661435       0.39097992       0.58182829  F        0        1
C        3.66283125      -1.15422648       2.55713174  T        1        2
C        2.67125557       0.00446883       2.47153082  T        1        2
O        1.74162159      -0.47341624       1.48020855  T        1        2
C        2.30815562      -1.47830083       0.76646413  T        1        2
O        3.47289347      -1.84024691       1.30395839  T        1        2
O        1.79919633      -1.94168982      -0.20674554  T        1        2
H        4.70138083      -0.83767617       2.62055291  T        1        2
H        3.43134773      -1.84982819       3.36520433  T        1        2
H        2.12539745       0.19411352       3.39227110  T        1        2
H        3.12040077       0.92655485       2.10096416  T        1        2
C       -2.33957271       3.95635182       3.24721001  F        0        1
C       -2.73847215       3.83557982       1.77553341  F        0        1
O       -2.00178735       2.67551135       1.34058663  F        0        1
C       -1.05510440       2.39487772       2.23427964  F        0        1
O       -1.14165370       3.15795081       3.31984530  F        0        1
O       -0.21338410       1.54538877       2.08009065  F        0        1
H       -2.09473498       4.97128973       3.55272004  F        0        1
H       -3.07619898       3.52612910       3.92681226  F        0        1
H       -3.79881100       3.64564169       1.62371641  F        0        1
H       -2.41757813       4.68658536       1.17355966  F        0        1
C       -0.77241151      -4.26372088      -0.05152939  F        0        1
C       -0.56242443      -3.86353847      -1.51292683  F        0        1
O       -0.97974671      -2.48561428      -1.53002700  F        0        1
C       -1.00190821      -2.02379248      -0.28399443  F        0        1
O       -0.87198565      -2.99320260       0.61807482  F        0        1
O       -1.14491000      -0.86013936       0.00085949  F        0        1
H       -1.70074197      -4.81090200       0.11674317  F        0        1
H        0.06898869      -4.80930683       0.37066513  F        0        1
H        0.48500371      -3.89962565      -1.81248270  F        0        1
H       -1.18320345      -4.41989283      -2.21217550  F        0        1
C        0.61220479       0.23900010      -4.07683041  F        0        1
C        0.80499734       1.74029685      -4.29323144  F        0        1
O        0.65033382       2.27522435      -2.96408107  F        0        1
C        0.75054587       1.28625887      -2.07889732  F        0        1
O        0.83170430       0.09287527      -2.66147667  F        0        1
O        0.77122411       1.45923201      -0.88616406  F        0        1
H       -0.40105293      -0.09857156      -4.29914991  F        0        1
H        1.33866836      -0.37599619      -4.60308341  F        0        1
H        1.80378350       1.99697672      -4.64910563  F        0        1
H        0.05073722       2.19106011      -4.93462691  F        0        1
41
Properties=species:S:1:pos:R:3:is_solvent:L:1:group_label:I:1:tags:I:1 Coordinates=T from=T ORCA-job=T Li1EC4_r09_charge_1_spin_1_liquid_t_traj_1_frame_0002=T E=T -1378.041938662065=T solvent_indices_0based="_JSON [1, 2, 3, 4, 5, 6, 7, 8, 9, 10]" complex_indices_0based="_JSON [0, 11, 12, 13, 14, 15, 16, 17, 18, 19, 20, 21, 22, 23, 24, 25, 26, 27, 28, 29, 30, 31, 32, 33, 34, 35, 36, 37, 38, 39, 40]" complex_indices_1based="_JSON [1, 12, 13, 14, 15, 16, 17, 18, 19, 20, 21, 22, 23, 24, 25, 26, 27, 28, 29, 30, 31, 32, 33, 34, 35, 36, 37, 38, 39, 40, 41]" pbc="F F F"
Li       0.16661400       0.39098000       0.58182800  F        0        1
C        3.66283100      -1.15422600       2.55713200  T        1        2
C        2.67125600       0.00446900       2.47153100  T        1        2
O        1.74162200      -0.47341600       1.48020900  T        1        2
C        2.30815600      -1.47830100       0.76646400  T        1        2
O        3.47289300      -1.84024700       1.30395800  T        1        2
O        1.79919600      -1.94169000      -0.20674600  T        1        2
H        4.70138100      -0.83767600       2.62055300  T        1        2
H        3.43134800      -1.84982800       3.36520400  T        1        2
H        2.12539700       0.19411400       3.39227100  T        1        2
H        3.12040100       0.92655500       2.10096400  T        1        2
C       -2.33957300       3.95635200       3.24721000  F        0        1
C       -2.73847200       3.83558000       1.77553300  F        0        1
O       -2.00178700       2.67551100       1.34058700  F        0        1
C       -1.05510400       2.39487800       2.23428000  F        0        1
O       -1.14165400       3.15795100       3.31984500  F        0        1
O       -0.21338400       1.54538900       2.08009100  F        0        1
H       -2.09473500       4.97129000       3.55272000  F        0        1
H       -3.07619900       3.52612900       3.92681200  F        0        1
H       -3.79881100       3.64564200       1.62371600  F        0        1
H       -2.41757800       4.68658500       1.17356000  F        0        1
C       -0.77241200      -4.26372100      -0.05152900  F        0        1
C       -0.56242400      -3.86353800      -1.51292700  F        0        1
O       -0.97974700      -2.48561400      -1.53002700  F        0        1
C       -1.00190800      -2.02379200      -0.28399400  F        0        1
O       -0.87198600      -2.99320300       0.61807500  F        0        1
O       -1.14491000      -0.86013900       0.00085900  F        0        1
H       -1.70074200      -4.81090200       0.11674300  F        0        1
H        0.06898900      -4.80930700       0.37066500  F        0        1
H        0.48500400      -3.89962600      -1.81248300  F        0        1
H       -1.18320300      -4.41989300      -2.21217500  F        0        1
C        0.61220500       0.23900000      -4.07683000  F        0        1
C        0.80499700       1.74029700      -4.29323100  F        0        1
O        0.65033400       2.27522400      -2.96408100  F        0        1
C        0.75054600       1.28625900      -2.07889700  F        0        1
O        0.83170400       0.09287500      -2.66147700  F        0        1
O        0.77122400       1.45923200      -0.88616400  F        0        1
H       -0.40105300      -0.09857200      -4.29915000  F        0        1
H        1.33866800      -0.37599600      -4.60308300  F        0        1
H        1.80378300       1.99697700      -4.64910600  F        0        1
H        0.05073700       2.19106000      -4.93462700  F        0        1
41
Properties=species:S:1:pos:R:3:is_solvent:L:1:group_label:I:1:tags:I:1 Coordinates=T from=T ORCA-job=T Li1EC4_r09_charge_1_spin_1_liquid_t_traj_1_frame_0003=T E=T -1378.037023732564=T solvent_indices_0based="_JSON [1, 2, 3, 4, 5, 6, 7, 8, 9, 10]" complex_indices_0based="_JSON [0, 11, 12, 13, 14, 15, 16, 17, 18, 19, 20, 21, 22, 23, 24, 25, 26, 27, 28, 29, 30, 31, 32, 33, 34, 35, 36, 37, 38, 39, 40]" complex_indices_1based="_JSON [1, 12, 13, 14, 15, 16, 17, 18, 19, 20, 21, 22, 23, 24, 25, 26, 27, 28, 29, 30, 31, 32, 33, 34, 35, 36, 37, 38, 39, 40, 41]" pbc="F F F"
Li      -1.15246003       0.79736035       0.60656568  F        0        1
C        4.39859965      -3.03536537      -0.65671529  T        1        2
C        4.53014651      -2.00321973      -1.77562142  T        1        2
O        3.57053070      -1.00066976      -1.39741545  T        1        2
C        2.72310735      -1.50493021      -0.48107173  T        1        2
O        3.10529143      -2.73821316      -0.10202664  T        1        2
O        1.75849121      -0.93647194      -0.06657331  T        1        2
H        4.39599941      -4.06396208      -1.01156772  T        1        2
H        5.14769880      -2.91054038       0.12686814  T        1        2
H        5.51384320      -1.54117798      -1.83023807  T        1        2
H        4.24803549      -2.40242502      -2.75222749  T        1        2
C       -5.23316436       3.36045822       2.67277548  F        0        1
C       -4.88351851       4.03602380       1.34503975  F        0        1
O       -3.88573945       3.15477657       0.79104667  F        0        1
C       -3.44612512       2.33307245       1.74181040  F        0        1
O       -4.12546840       2.46105741       2.87661848  F        0        1
O       -2.53599693       1.55833367       1.59468300  F        0        1
H       -5.27533057       4.04660187       3.51586719  F        0        1
H       -6.14696953       2.76733570       2.62325658  F        0        1
H       -5.71787946       4.08909009       0.64893674  F        0        1
H       -4.43357385       5.02146922       1.47023151  F        0        1
C        0.36643328      -3.02180422       2.18573180  F        0        1
C        0.02890788      -3.96822131       1.03271505  F        0        1
O       -0.51783634      -3.08155623       0.03691616  F        0        1
C       -0.78526141      -1.90717262       0.59509267  F        0        1
O       -0.41569314      -1.85567483       1.87398320  F        0        1
O       -1.32036859      -0.99143392       0.02030518  F        0        1
H        0.05709634      -3.39117247       3.16118776  F        0        1
H        1.41696057      -2.73232767       2.19837919  F        0        1
H        0.90197367      -4.45834525       0.60776854  F        0        1
H       -0.73449000      -4.70383540       1.28916396  F        0        1
C        1.96412953       1.59911437      -2.81665404  F        0        1
C        2.99435882       2.29677625      -1.92550411  F        0        1
O        2.39791707       2.22114721      -0.61849043  F        0        1
C        1.12524402       1.86032296      -0.73244246  F        0        1
O        0.78831498       1.57528294      -1.98929149  F        0        1
O        0.35422702       1.82439871       0.19324126  F        0        1
H        1.73153889       2.14656509      -3.72794727  F        0        1
H        2.23442849       0.56952524      -3.04968473  F        0        1
H        3.95299842       1.78432527      -1.89221773  F        0        1
H        3.13666966       3.34913095      -2.17436323  F        0        1
41
Properties=species:S:1:pos:R:3:is_solvent:L:1:group_label:I:1:tags:I:1 Coordinates=T from=T ORCA-job=T Li1EC4_r09_charge_1_spin_1_liquid_t_traj_1_frame_0003=T E=T -1378.037023732564=T solvent_indices_0based="_JSON [1, 2, 3, 4, 5, 6, 7, 8, 9, 10]" complex_indices_0based="_JSON [0, 11, 12, 13, 14, 15, 16, 17, 18, 19, 20, 21, 22, 23, 24, 25, 26, 27, 28, 29, 30, 31, 32, 33, 34, 35, 36, 37, 38, 39, 40]" complex_indices_1based="_JSON [1, 12, 13, 14, 15, 16, 17, 18, 19, 20, 21, 22, 23, 24, 25, 26, 27, 28, 29, 30, 31, 32, 33, 34, 35, 36, 37, 38, 39, 40, 41]" pbc="F F F"
Li      -1.15246000       0.79736000       0.60656600  F        0        1
C        4.39860000      -3.03536500      -0.65671500  T        1        2
C        4.53014700      -2.00322000      -1.77562100  T        1        2
O        3.57053100      -1.00067000      -1.39741500  T        1        2
C        2.72310700      -1.50493000      -0.48107200  T        1        2
O        3.10529100      -2.73821300      -0.10202700  T        1        2
O        1.75849100      -0.93647200      -0.06657300  T        1        2
H        4.39599900      -4.06396200      -1.01156800  T        1        2
H        5.14769900      -2.91054000       0.12686800  T        1        2
H        5.51384300      -1.54117800      -1.83023800  T        1        2
H        4.24803500      -2.40242500      -2.75222700  T        1        2
C       -5.23316400       3.36045800       2.67277500  F        0        1
C       -4.88351900       4.03602400       1.34504000  F        0        1
O       -3.88573900       3.15477700       0.79104700  F        0        1
C       -3.44612500       2.33307200       1.74181000  F        0        1
O       -4.12546800       2.46105700       2.87661800  F        0        1
O       -2.53599700       1.55833400       1.59468300  F        0        1
H       -5.27533100       4.04660200       3.51586700  F        0        1
H       -6.14697000       2.76733600       2.62325700  F        0        1
H       -5.71787900       4.08909000       0.64893700  F        0        1
H       -4.43357400       5.02146900       1.47023200  F        0        1
C        0.36643300      -3.02180400       2.18573200  F        0        1
C        0.02890800      -3.96822100       1.03271500  F        0        1
O       -0.51783600      -3.08155600       0.03691600  F        0        1
C       -0.78526100      -1.90717300       0.59509300  F        0        1
O       -0.41569300      -1.85567500       1.87398300  F        0        1
O       -1.32036900      -0.99143400       0.02030500  F        0        1
H        0.05709600      -3.39117200       3.16118800  F        0        1
H        1.41696100      -2.73232800       2.19837900  F        0        1
H        0.90197400      -4.45834500       0.60776900  F        0        1
H       -0.73449000      -4.70383500       1.28916400  F        0        1
C        1.96413000       1.59911400      -2.81665400  F        0        1
C        2.99435900       2.29677600      -1.92550400  F        0        1
O        2.39791700       2.22114700      -0.61849000  F        0        1
C        1.12524400       1.86032300      -0.73244200  F        0        1
O        0.78831500       1.57528300      -1.98929100  F        0        1
O        0.35422700       1.82439900       0.19324100  F        0        1
H        1.73153900       2.14656500      -3.72794700  F        0        1
H        2.23442800       0.56952500      -3.04968500  F        0        1
H        3.95299800       1.78432500      -1.89221800  F        0        1
H        3.13667000       3.34913100      -2.17436300  F        0        1
41
Properties=species:S:1:pos:R:3:is_solvent:L:1:group_label:I:1:tags:I:1 Coordinates=T from=T ORCA-job=T Li1EC4_r09_charge_1_spin_1_liquid_t_traj_1_frame_0004=T E=T -1378.038477164460=T solvent_indices_0based="_JSON [1, 2, 3, 4, 5, 6, 7, 8, 9, 10]" complex_indices_0based="_JSON [0, 11, 12, 13, 14, 15, 16, 17, 18, 19, 20, 21, 22, 23, 24, 25, 26, 27, 28, 29, 30, 31, 32, 33, 34, 35, 36, 37, 38, 39, 40]" complex_indices_1based="_JSON [1, 12, 13, 14, 15, 16, 17, 18, 19, 20, 21, 22, 23, 24, 25, 26, 27, 28, 29, 30, 31, 32, 33, 34, 35, 36, 37, 38, 39, 40, 41]" pbc="F F F"
Li      -1.21413160       0.76387177       0.97058018  F        0        1
C        4.48086563      -3.36320827      -1.05292728  T        1        2
C        4.42806891      -2.44644350      -2.27564457  T        1        2