41
Properties=species:S:1:pos:R:3:is_solvent:L:1:group_label:I:1:tags:I:1 Coordinates=T from=T ORCA-job=T Li1EC4_r08_charge_1_spin_1_liquid_t_traj_4_frame_0000=T E=T -1378.044449763719=T solvent_indices_0based="_JSON [31, 32, 33, 34, 35, 36, 37, 38, 39, 40]" complex_indices_0based="_JSON [0, 1, 2, 3, 4, 5, 6, 7, 8, 9, 10, 11, 12, 13, 14, 15, 16, 17, 18, 19, 20, 21, 22, 23, 24, 25, 26, 27, 28, 29, 30]" complex_indices_1based="_JSON [1, 2, 3, 4, 5, 6, 7, 8, 9, 10, 11, 12, 13, 14, 15, 16, 17, 18, 19, 20, 21, 22, 23, 24, 25, 26, 27, 28, 29, 30, 31]" pbc="F F F"
Li       0.18842435      -0.23117880       0.18034830  F        0        1
C        4.62397082      -1.16807812       2.45775474  F        0        1
C        4.35634612       0.31739670       2.21340345  F        0        1
O        3.06773792       0.30783845       1.57216337  F        0        1
C        2.78849800      -0.92865526       1.15571608  F        0        1
O        3.70431780      -1.81147169       1.55598854  F        0        1
O        1.82727853      -1.21720199       0.49219777  F        0        1
H        5.63374547      -1.48012136       2.19961840  F        0        1
H        4.38150998      -1.48269818       3.47377117  F        0        1
H        4.28172016       0.90365403       3.12689097  F        0        1
H        5.07428204       0.77447662       1.53094825  F        0        1
C       -1.88848982      -4.80253064      -0.60678494  F        0        1
C       -1.07443079      -4.64204772       0.67703105  F        0        1
O       -0.90554084      -3.21540930       0.76763697  F        0        1
C       -1.17079655      -2.66453526      -0.41881051  F        0        1
O       -1.66689003      -3.55085500      -1.28285541  F        0        1
O       -0.99051579      -1.50414848      -0.67982619  F        0        1
H       -1.53849209      -5.60744306      -1.24961020  F        0        1
H       -2.95882449      -4.90700805      -0.42293964  F        0        1
H       -1.59253188      -4.98489651       1.57013304  F        0        1
H       -0.08563118      -5.09888931       0.61564707  F        0        1
C       -3.09596118       2.47756465       2.11376638  F        0        1
C       -2.27614788       2.89013718       3.33727882  F        0        1
O       -1.23222097       1.89966773       3.37275549  F        0        1
C       -1.18379738       1.26586340       2.20083996  F        0        1
O       -2.19147921       1.61589667       1.39876140  F        0        1
O       -0.33301386       0.46763634       1.90743490  F        0        1
H       -3.98596442       1.90123337       2.37024939  F        0        1
H       -3.36212693       3.31012983       1.46587856  F        0        1
H       -1.81172701       3.87110404       3.22780557  F        0        1
H       -2.82979273       2.83993112       4.27250672  F        0        1
C        0.79262184       0.86088879      -4.35953198  T        1        2
C        0.01688281       2.17772307      -4.30947726  T        1        2
O       -0.01444094       2.47764072      -2.90177010  T        1        2
C        0.30578490       1.38329418      -2.20997963  T        1        2
O        0.70416310       0.38703083      -3.00358667  T        1        2
O        0.24698974       1.30900780      -1.01094559  T        1        2
H        0.34605376       0.11559699      -5.01442256  T        1        2
H        1.84670156       0.99519808      -4.60660087  T        1        2
H        0.51199675       2.99800198      -4.82495618  T        1        2
H       -1.01138924       2.07966260      -4.66033528  T        1        2
41
Properties=species:S:1:pos:R:3:is_solvent:L:1:group_label:I:1:tags:I:1 Coordinates=T from=T ORCA-job=T Li1EC4_r08_charge_1_spin_1_liquid_t_traj_4_frame_0000=T E=T -1378.044449763719=T solvent_indices_0based="_JSON [31, 32, 33, 34, 35, 36, 37, 38, 39, 40]" complex_indices_0based="_JSON [0, 1, 2, 3, 4, 5, 6, 7, 8, 9, 10, 11, 12, 13, 14, 15, 16, 17, 18, 19, 20, 21, 22, 23, 24, 25, 26, 27, 28, 29, 30]" complex_indices_1based="_JSON [1, 2, 3, 4, 5, 6, 7, 8, 9, 10, 11, 12, 13, 14, 15, 16, 17, 18, 19, 20, 21, 22, 23, 24, 25, 26, 27, 28, 29, 30, 31]" pbc="F F F"
Li       0.18842400      -0.23117900       0.18034800  F        0        1
C        4.62397100      -1.16807800       2.45775500  F        0        1
C        4.35634600       0.31739700       2.21340300  F        0        1
O        3.06773800       0.30783800       1.57216300  F        0        1
C        2.78849800      -0.92865500       1.15571600  F        0        1
O        3.70431800      -1.81147200       1.55598900  F        0        1
O        1.82727900      -1.21720200       0.49219800  F        0        1
H        5.63374500      -1.48012100       2.19961800  F        0        1
H        4.38151000      -1.48269800       3.47377100  F        0        1
H        4.28172000       0.90365400       3.12689100  F        0        1
H        5.07428200       0.77447700       1.53094800  F        0        1
C       -1.88849000      -4.80253100      -0.60678500  F        0        1
C       -1.07443100      -4.64204800       0.67703100  F        0        1
O       -0.90554100      -3.21540900       0.76763700  F        0        1
C       -1.17079700      -2.66453500      -0.41881100  F        0        1
O       -1.66689000      -3.55085500      -1.28285500  F        0        1
O       -0.99051600      -1.50414800      -0.67982600  F        0        1
H       -1.53849200      -5.60744300      -1.24961000  F        0        1
H       -2.95882400      -4.90700800      -0.42294000  F        0        1
H       -1.59253200      -4.98489700       1.57013300  F        0        1
H       -0.08563100      -5.09888900       0.61564700  F        0        1
C       -3.09596100       2.47756500       2.11376600  F        0        1
C       -2.27614800       2.89013700       3.33727900  F        0        1
O       -1.23222100       1.89966800       3.37275500  F        0        1
C       -1.18379700       1.26586300       2.20084000  F        0        1
O       -2.19147900       1.61589700       1.39876100  F        0        1
O       -0.33301400       0.46763600       1.90743500  F        0        1
H       -3.98596400       1.90123300       2.37024900  F        0        1
H       -3.36212700       3.31013000       1.46587900  F        0        1
H       -1.81172700       3.87110400       3.22780600  F        0        1
H       -2.82979300       2.83993100       4.27250700  F        0        1
C        0.79262200       0.86088900      -4.35953200  T        1        2
C        0.01688300       2.17772300      -4.30947700  T        1        2
O       -0.01444100       2.47764100      -2.90177000  T        1        2
C        0.30578500       1.38329400      -2.20998000  T        1        2
O        0.70416300       0.38703100      -3.00358700  T        1        2
O        0.24699000       1.30900800      -1.01094600  T        1        2
H        0.34605400       0.11559700      -5.01442300  T        1        2
H        1.84670200       0.99519800      -4.60660100  T        1        2
H        0.51199700       2.99800200      -4.82495600  T        1        2
H       -1.01138900       2.07966300      -4.66033500  T        1        2
41
Properties=species:S:1:pos:R:3:is_solvent:L:1:group_label:I:1:tags:I:1 Coordinates=T from=T ORCA-job=T Li1EC4_r08_charge_1_spin_1_liquid_t_traj_4_frame_0001=T E=T -1378.038029855951=T solvent_indices_0based="_JSON [31, 32, 33, 34, 35, 36, 37, 38, 39, 40]" complex_indices_0based="_JSON [0, 1, 2, 3, 4, 5, 6, 7, 8, 9, 10, 11, 12, 13, 14, 15, 16, 17, 18, 19, 20, 21, 22, 23, 24, 25, 26, 27, 28, 29, 30]" complex_indices_1based="_JSON [1, 2, 3, 4, 5, 6, 7, 8, 9, 10, 11, 12, 13, 14, 15, 16, 17, 18, 19, 20, 21, 22, 23, 24, 25, 26, 27, 28, 29, 30, 31]" pbc="F F F"
Li      -0.22109097      -0.63853053       0.68133071  F        0        1
C        4.82203136      -0.42554894       0.38598972  F        0        1
C        4.11995583       0.79949538       0.97052496  F        0        1
O        2.77883859       0.32402423       1.17574545  F        0        1
C        2.59299690      -0.78267219       0.45748207  F        0        1
O        3.72202678      -1.21740343      -0.09975735  F        0        1
O        1.52979416      -1.33435887       0.33159484  F        0        1
H        5.47991349      -0.19818392      -0.45026288  F        0        1
H        5.35833470      -1.00825631       1.13642676  F        0        1
H        4.52315064       1.12246050       1.92793026  F        0        1
H        4.07935369       1.63930584       0.27508157  F        0        1
C       -2.82998581      -4.92003689      -0.49513604  F        0        1
C       -1.71462574      -5.15269272       0.52444516  F        0        1
O       -1.31923179      -3.81097677       0.87159052  F        0        1
C       -1.79238012      -2.96308191      -0.04190619  F        0        1
O       -2.60191671      -3.56087111      -0.91301514  F        0        1
O       -1.52413227      -1.79001546      -0.07663927  F        0        1
H       -2.76790062      -5.56409499      -1.36966143  F        0        1
H       -3.82686886      -4.97942616      -0.05593409  F        0        1
H       -2.04643970      -5.65869223       1.42856551  F        0        1
H       -0.84740533      -5.66421377       0.10470377  F        0        1
C       -3.30643352       2.44370843       2.26991762  F        0        1
C       -2.41840222       3.01396155       3.37796087  F        0        1
O       -1.39783479       2.00872636       3.52158745  F        0        1
C       -1.42761210       1.19669724       2.46773366  F        0        1
O       -2.46366072       1.44451542       1.66757932  F        0        1
O       -0.61220804       0.33317319       2.26614685  F        0        1
H       -4.20162574       1.95069881       2.65150109  F        0        1
H       -3.57714142       3.17071312       1.50708647  F        0        1
H       -1.93614287       3.95167316       3.09874222  F        0        1
H       -2.92822007       3.12625521       4.33258343  F        0        1
C        2.49145778       1.55692398      -3.13473696  T        1        2
C        1.23491655       1.99308391      -3.88804168  T        1        2
O        0.26552000       2.13097195      -2.83764982  T        1        2
C        0.69281090       1.49401142      -1.74257190  T        1        2
O        1.96507768       1.06991504      -1.88820643  T        1        2
O        0.03728542       1.32554327      -0.75688436  T        1        2
H        3.03471924       0.74915624      -3.62161965  T        1        2
H        3.16593946       2.38918731      -2.92395338  T        1        2
H        1.34046633       2.95150467      -4.39233932  T        1        2
H        0.87676699       1.23887323      -4.59061102  T        1        2
41
Properties=species:S:1:pos:R:3:is_solvent:L:1:group_label:I:1:tags:I:1 Coordinates=T from=T ORCA-job=T Li1EC4_r08_charge_1_spin_1_liquid_t_traj_4_frame_0001=T E=T -1378.038029855951=T solvent_indices_0based="_JSON [31, 32, 33, 34, 35, 36, 37, 38, 39, 40]" complex_indices_0based="_JSON [0, 1, 2, 3, 4, 5, 6, 7, 8, 9, 10, 11, 12, 13, 14, 15, 16, 17, 18, 19, 20, 21, 22, 23, 24, 25, 26, 27, 28, 29, 30]" complex_indices_1based="_JSON [1, 2, 3, 4, 5, 6, 7, 8, 9, 10, 11, 12, 13, 14, 15, 16, 17, 18, 19, 20, 21, 22, 23, 24, 25, 26, 27, 28, 29, 30, 31]" pbc="F F F"
Li      -0.22109100      -0.63853100       0.68133100  F        0        1
C        4.82203100      -0.42554900       0.38599000  F        0        1
C        4.11995600       0.79949500       0.97052500  F        0        1
O        2.77883900       0.32402400       1.17574500  F        0        1
C        2.59299700      -0.78267200       0.45748200  F        0        1
O        3.72202700      -1.21740300      -0.09975700  F        0        1
O        1.52979400      -1.33435900       0.33159500  F        0        1
H        5.47991300      -0.19818400      -0.45026300  F        0        1
H        5.35833500      -1.00825600       1.13642700  F        0        1
H        4.52315100       1.12246000       1.92793000  F        0        1
H        4.07935400       1.63930600       0.27508200  F        0        1
C       -2.82998600      -4.92003700      -0.49513600  F        0        1
C       -1.71462600      -5.15269300       0.52444500  F        0        1
O       -1.31923200      -3.81097700       0.87159100  F        0        1
C       -1.79238000      -2.96308200      -0.04190600  F        0        1
O       -2.60191700      -3.56087100      -0.91301500  F        0        1
O       -1.52413200      -1.79001500      -0.07663900  F        0        1
H       -2.76790100      -5.56409500      -1.36966100  F        0        1
H       -3.82686900      -4.97942600      -0.05593400  F        0        1
H       -2.04644000      -5.65869200       1.42856600  F        0        1
H       -0.84740500      -5.66421400       0.10470400  F        0        1
C       -3.30643400       2.44370800       2.26991800  F        0        1
C       -2.41840200       3.01396200       3.37796100  F        0        1
O       -1.39783500       2.00872600       3.52158700  F        0        1
C       -1.42761200       1.19669700       2.46773400  F        0        1
O       -2.46366100       1.44451500       1.66757900  F        0        1
O       -0.61220800       0.33317300       2.26614700  F        0        1
H       -4.20162600       1.95069900       2.65150100  F        0        1
H       -3.57714100       3.17071300       1.50708600  F        0        1
H       -1.93614300       3.95167300       3.09874200  F        0        1
H       -2.92822000       3.12625500       4.33258300  F        0        1
C        2.49145800       1.55692400      -3.13473700  T        1        2
C        1.23491700       1.99308400      -3.88804200  T        1        2
O        0.26552000       2.13097200      -2.83765000  T        1        2
C        0.69281100       1.49401100      -1.74257200  T        1        2
O        1.96507800       1.06991500      -1.88820600  T        1        2
O        0.03728500       1.32554300      -0.75688400  T        1        2
H        3.03471900       0.74915600      -3.62162000  T        1        2
H        3.16593900       2.38918700      -2.92395300  T        1        2
H        1.34046600       2.95150500      -4.39233900  T        1        2
H        0.87676700       1.23887300      -4.59061100  T        1        2
41
Properties=species:S:1:pos:R:3:is_solvent:L:1:group_label:I:1:tags:I:1 Coordinates=T from=T ORCA-job=T Li1EC4_r08_charge_1_spin_1_liquid_t_traj_4_frame_0002=T E=T -1378.043873880225=T solvent_indices_0based="_JSON [31, 32, 33, 34, 35, 36, 37, 38, 39, 40]" complex_indices_0based="_JSON [0, 1, 2, 3, 4, 5, 6, 7, 8, 9, 10, 11, 12, 13, 14, 15, 16, 17, 18, 19, 20, 21, 22, 23, 24, 25, 26, 27, 28, 29, 30]" complex_indices_1based="_JSON [1, 2, 3, 4, 5, 6, 7, 8, 9, 10, 11, 12, 13, 14, 15, 16, 17, 18, 19, 20, 21, 22, 23, 24, 25, 26, 27, 28, 29, 30, 31]" pbc="F F F"
Li      -0.09587068      -0.71043386      -0.16298355  F        0        1
C        4.48021088       0.73097914       1.15710524  F        0        1
C        3.41475500       0.76940512       2.25181886  F        0        1
O        2.42015796      -0.14337243       1.75113529  F        0        1
C        2.60510816      -0.30728924       0.44660027  F        0        1
O        3.74740708       0.22308205       0.02341941  F        0        1
O        1.82267955      -0.87397705      -0.28042067  F        0        1
H        4.87857898       1.70903414       0.89629408  F        0        1
H        5.29291820       0.03697295       1.37559052  F        0        1
H        3.76139917       0.40684720       3.21693527  F        0        1
H        2.94606254       1.74849564       2.35781728  F        0        1
C       -2.64995911      -5.02612128      -1.32220814  F        0        1
C       -1.93222283      -5.08665972       0.02731169  F        0        1
O       -1.40572785      -3.75135937       0.16760668  F        0        1
C       -1.45244587      -3.13376067      -1.00998640  F        0        1
O       -2.07910894      -3.85228554      -1.93568386  F        0        1
O       -0.97907243      -2.04379507      -1.21831105  F        0        1
H       -2.44876764      -5.88060838      -1.96460309  F        0        1
H       -3.72530976      -4.87055871      -1.22842314  F        0        1
H       -2.59479558      -5.28380604       0.86721465  F        0        1
H       -1.09415487      -5.78441640       0.03646817  F        0        1
C       -1.79678129       3.25306351       1.97446205  F        0        1
C       -0.48493824       3.11964925       2.74715988  F        0        1
O       -0.23976205       1.70109279       2.71629268  F        0        1
C       -0.98078867       1.15407555       1.75598355  F        0        1
O       -1.86733999       2.00952891       1.25282369  F        0        1
O       -0.87796308       0.00847200       1.39478208  F        0        1
H       -2.67204013       3.32226837       2.62171683  F        0        1
H       -1.79557853       4.06894241       1.25470200  F        0        1
H        0.34782778       3.61645850       2.24811697  F        0        1
H       -0.55409180       3.43465461       3.78622483  F        0        1
C        0.78763438       1.68222406      -3.52937451  T        1        2
C        0.06797951       0.43913597      -3.01227096  T        1        2
O       -0.13857875       0.76911896      -1.62206935  T        1        2
C        0.73449480       1.73933393      -1.26363722  T        1        2
O        1.34344971       2.25429539      -2.32685188  T        1        2
O        0.92006757       2.05673480      -0.12457937  T        1        2
H        1.60565828       1.46135066      -4.21127941  T        1        2
H        0.11189865       2.41418102      -3.97372574  T        1        2
H       -0.90176689       0.26272081      -3.47063365  T        1        2
H        0.68015031      -0.46203394      -3.05798655  T        1        2
41
Properties=species:S:1:pos:R:3:is_solvent:L:1:group_label:I:1:tags:I:1 Coordinates=T from=T ORCA-job=T Li1EC4_r08_charge_1_spin_1_liquid_t_traj_4_frame_0002=T E=T -1378.043873880225=T solvent_indices_0based="_JSON [31, 32, 33, 34, 35, 36, 37, 38, 39, 40]" complex_indices_0based="_JSON [0, 1, 2, 3, 4, 5, 6, 7, 8, 9, 10, 11, 12, 13, 14, 15, 16, 17, 18, 19, 20, 21, 22, 23, 24, 25, 26, 27, 28, 29, 30]" complex_indices_1based="_JSON [1, 2, 3, 4, 5, 6, 7, 8, 9, 10, 11, 12, 13, 14, 15, 16, 17, 18, 19, 20, 21, 22, 23, 24, 25, 26, 27, 28, 29, 30, 31]" pbc="F F F"
Li      -0.09587100      -0.71043400      -0.16298400  F        0        1
C        4.48021100       0.73097900       1.15710500  F        0        1
C        3.41475500       0.76940500       2.25181900  F        0        1
O        2.42015800      -0.14337200       1.75113500  F        0        1
C        2.60510800      -0.30728900       0.44660000  F        0        1
O        3.74740700       0.22308200       0.02341900  F        0        1
O        1.82268000      -0.87397700      -0.28042100  F        0        1
H        4.87857900       1.70903400       0.89629400  F        0        1
H        5.29291800       0.03697300       1.37559100  F        0        1
H        3.76139900       0.40684700       3.21693500  F        0        1
H        2.94606300       1.74849600       2.35781700  F        0        1
C       -2.64995900      -5.02612100      -1.32220800  F        0        1
C       -1.93222300      -5.08666000       0.02731200  F        0        1
O       -1.40572800      -3.75135900       0.16760700  F        0        1
C       -1.45244600      -3.13376100      -1.00998600  F        0        1
O       -2.07910900      -3.85228600      -1.93568400  F        0        1
O       -0.97907200      -2.04379500      -1.21831100  F        0        1
H       -2.44876800      -5.88060800      -1.96460300  F        0        1
H       -3.72531000      -4.87055900      -1.22842300  F        0        1
H       -2.59479600      -5.28380600       0.86721500  F        0        1
H       -1.09415500      -5.78441600       0.03646800  F        0        1
C       -1.79678100       3.25306400       1.97446200  F        0        1
C       -0.48493800       3.11964900       2.74716000  F        0        1
O       -0.23976200       1.70109300       2.71629300  F        0        1
C       -0.98078900       1.15407600       1.75598400  F        0        1
O       -1.86734000       2.00952900       1.25282400  F        0        1
O       -0.87796300       0.00847200       1.39478200  F        0        1
H       -2.67204000       3.32226800       2.62171700  F        0        1
H       -1.79557900       4.06894200       1.25470200  F        0        1
H        0.34782800       3.61645900       2.24811700  F        0        1
H       -0.55409200       3.43465500       3.78622500  F        0        1
C        0.78763400       1.68222400      -3.52937500  T        1        2
C        0.06798000       0.43913600      -3.01227100  T        1        2
O       -0.13857900       0.76911900      -1.62206900  T        1        2
C        0.73449500       1.73933400      -1.26363700  T        1        2
O        1.34345000       2.25429500      -2.32685200  T        1        2
O        0.92006800       2.05673500      -0.12457900  T        1        2
H        1.60565800       1.46135100      -4.21127900  T        1        2
H        0.11189900       2.41418100      -3.97372600  T        1        2
H       -0.90176700       0.26272100      -3.47063400  T        1        2
H        0.68015000      -0.46203400      -3.05798700  T        1        2
41
Properties=species:S:1:pos:R:3:is_solvent:L:1:group_label:I:1:tags:I:1 Coordinates=T from=T ORCA-job=T Li1EC4_r08_charge_1_spin_1_liquid_t_traj_4_frame_0003=T E=T -1378.033182974662=T solvent_indices_0based="_JSON [31, 32, 33, 34, 35, 36, 37, 38, 39, 40]" complex_indices_0based="_JSON [0, 1, 2, 3, 4, 5, 6, 7, 8, 9, 10, 11, 12, 13, 14, 15, 16, 17, 18, 19, 20, 21, 22, 23, 24, 25, 26, 27, 28, 29, 30]" complex_indices_1based="_JSON [1, 2, 3, 4, 5, 6, 7, 8, 9, 10, 11, 12, 13, 14, 15, 16, 17, 18, 19, 20, 21, 22, 23, 24, 25, 26, 27, 28, 29, 30, 31]" pbc="F F F"
Li      -0.42125078      -0.81975554       0.93122686  F        0        1
C        4.41799900      -0.60914188      -0.44678717  F        0        1
C        3.99236121       0.49049776       0.53012760  F        0        1
O        2.74205028       0.00008269       1.04421702  F        0        1
C        2.31362452      -0.99899778       0.28123313  F        0        1
O        3.21701229      -1.38500788      -0.61133462  F        0        1
O        1.23187428      -1.52102278       0.40425239  F        0        1
H        4.71005416      -0.22334801      -1.42154850  F        0        1
H        5.19420307      -1.26352347      -0.04867504  F        0        1
H        4.67735821       0.62131479       1.36551714  F        0        1
H        3.80380110       1.44066972       0.03234789  F        0        1
C       -3.16688164      -5.01709054      -0.06803266  F        0        1
C       -1.72327050      -5.29845764       0.34988156  F        0        1
O       -1.26652849      -4.00699191       0.79803900  F        0        1
C       -2.10132646      -3.06926506       0.35598128  F        0        1
O       -3.17905501      -3.58426251      -0.22674847  F        0        1
O       -1.90861886      -1.88438098       0.47413736  F        0        1
H       -3.44523001      -5.46920805      -1.01748178  F        0        1
H       -3.89399437      -5.27926257       0.70164212  F        0        1
H       -1.63460642      -6.00000695       1.17653859  F        0        1
H       -1.09001159      -5.61247631      -0.48083192  F        0        1
C       -3.37741971       2.69614839       2.21360656  F        0        1
C       -2.56202123       3.14284458       3.42790751  F        0        1
O       -1.56498998       2.10832456       3.54065748  F        0        1
C       -1.52739610       1.40947841       2.41091562  F        0        1
O       -2.49173321       1.76372021       1.56290146  F        0        1
O       -0.70993486       0.55363374       2.18270283  F        0        1
H       -4.29099342       2.16498392       2.48370784  F        0        1
H       -3.60302399       3.49980018       1.51604227  F        0        1
H       -2.04903277       4.09297942       3.27341208  F        0        1
H       -3.13307349       3.17109448       4.35334902  F        0        1
C        3.21031507       2.92994737      -3.50784913  T        1        2
C        1.85560467       2.93281790      -4.21480693  T        1        2
O        0.98949757       2.32234819      -3.24460642  T        1        2
C        1.72275057       1.66619117      -2.33603577  T        1        2
O        3.04104570       1.91757266      -2.50197401  T        1        2
O        1.28145473       0.94850487      -1.49011530  T        1        2
H        4.03816027       2.64504167      -4.15424538  T        1        2
H        3.42742743       3.87971844      -3.01439815  T        1        2
H        1.48093065       3.93057039      -4.43418835  T        1        2
H        1.84551830       2.32167115      -5.11890154  T        1        2
41
Properties=species:S:1:pos:R:3:is_solvent:L:1:group_label:I:1:tags:I:1 Coordinates=T from=T ORCA-job=T Li1EC4_r08_charge_1_spin_1_liquid_t_traj_4_frame_0003=T E=T -1378.033182974662=T solvent_indices_0based="_JSON [31, 32, 33, 34, 35, 36, 37, 38, 39, 40]" complex_indices_0based="_JSON [0, 1, 2, 3, 4, 5, 6, 7, 8, 9, 10, 11, 12, 13, 14, 15, 16, 17, 18, 19, 20, 21, 22, 23, 24, 25, 26, 27, 28, 29, 30]" complex_indices_1based="_JSON [1, 2, 3, 4, 5, 6, 7, 8, 9, 10, 11, 12, 13, 14, 15, 16, 17, 18, 19, 20, 21, 22, 23, 24, 25, 26, 27, 28, 29, 30, 31]" pbc="F F F"
Li      -0.42125100      -0.81975600       0.93122700  F        0        1
C        4.41799900      -0.60914200      -0.44678700  F        0        1
C        3.99236100       0.49049800       0.53012800  F        0        1
O        2.74205000       0.00008300       1.04421700  F        0        1
C        2.31362500      -0.99899800       0.28123300  F        0        1
O        3.21701200      -1.38500800      -0.61133500  F        0        1
O        1.23187400      -1.52102300       0.40425200  F        0        1
H        4.71005400      -0.22334800      -1.42154800  F        0        1
H        5.19420300      -1.26352300      -0.04867500  F        0        1
H        4.67735800       0.62131500       1.36551700  F        0        1
H        3.80380100       1.44067000       0.03234800  F        0        1
C       -3.16688200      -5.01709100      -0.06803300  F        0        1
C       -1.72327000      -5.29845800       0.34988200  F        0        1
O       -1.26652800      -4.00699200       0.79803900  F        0        1
C       -2.10132600      -3.06926500       0.35598100  F        0        1
O       -3.17905500      -3.58426300      -0.22674800  F        0        1
O       -1.90861900      -1.88438100       0.47413700  F        0        1
H       -3.44523000      -5.46920800      -1.01748200  F        0        1
H       -3.89399400      -5.27926300       0.70164200  F        0        1
H       -1.63460600      -6.00000700       1.17653900  F        0        1
H       -1.09001200      -5.61247600      -0.48083200  F        0        1
C       -3.37742000       2.69614800       2.21360700  F        0        1
C       -2.56202100       3.14284500       3.42790800  F        0        1
O       -1.56499000       2.10832500       3.54065700  F        0        1
C       -1.52739600       1.40947800       2.41091600  F        0        1
O       -2.49173300       1.76372000       1.56290100  F        0        1
O       -0.70993500       0.55363400       2.18270300  F        0        1
H       -4.29099300       2.16498400       2.48370800  F        0        1
H       -3.60302400       3.49980000       1.51604200  F        0        1
H       -2.04903300       4.09297900       3.27341200  F        0        1
H       -3.13307300       3.17109400       4.35334900  F        0        1
C        3.21031500       2.92994700      -3.50784900  T        1        2
C        1.85560500       2.93281800      -4.21480700  T        1        2
O        0.98949800       2.32234800      -3.24460600  T        1        2
C        1.72275100       1.66619100      -2.33603600  T        1        2
O        3.04104600       1.91757300      -2.50197400  T        1        2
O        1.28145500       0.94850500      -1.49011500  T        1        2
H        4.03816000       2.64504200      -4.15424500  T        1        2
H        3.42742700       3.87971800      -3.01439800  T        1        2
H        1.48093100       3.93057000      -4.43418800  T        1        2
H        1.84551800       2.32167100      -5.11890200  T        1        2
41
Properties=species:S:1:pos:R:3:is_solvent:L:1:group_label:I:1:tags:I:1 Coordinates=T from=T ORCA-job=T Li1EC4_r08_charge_1_spin_1_liquid_t_traj_4_frame_0004=T E=T -1378.033432993695=T solvent_indices_0based="_JSON [31, 32, 33, 34, 35, 36, 37, 38, 39, 40]" complex_indices_0based="_JSON [0, 1, 2, 3, 4, 5, 6, 7, 8, 9, 10, 11, 12, 13, 14, 15, 16, 17, 18, 19, 20, 21, 22, 23, 24, 25, 26, 27, 28, 29, 30]" complex_indices_1based="_JSON [1, 2, 3, 4, 5, 6, 7, 8, 9, 10, 11, 12, 13, 14, 15, 16, 17, 18, 19, 20, 21, 22, 23, 24, 25, 26, 27, 28, 29, 30, 31]" pbc="F F F"
Li      -0.47164764      -0.74076407       1.03773707  F        0        1
C        4.36157793      -0.34398357      -0.46626659  F        0        1
C        3.90323373       0.79267541       0.45612493  F        0        1
O        2.62729395       0.33581209       0.93632135  F        0        1