41
Properties=species:S:1:pos:R:3:is_solvent:L:1:group_label:I:1:tags:I:1 Coordinates=T from=T ORCA-job=T Li1EC4_r03_charge_1_spin_1_liquid_t_traj_1_frame_0000=T E=T -1378.044319799115=T solvent_indices_0based="_JSON [1, 2, 3, 4, 5, 6, 7, 8, 9, 10]" complex_indices_0based="_JSON [0, 11, 12, 13, 14, 15, 16, 17, 18, 19, 20, 21, 22, 23, 24, 25, 26, 27, 28, 29, 30, 31, 32, 33, 34, 35, 36, 37, 38, 39, 40]" complex_indices_1based="_JSON [1, 12, 13, 14, 15, 16, 17, 18, 19, 20, 21, 22, 23, 24, 25, 26, 27, 28, 29, 30, 31, 32, 33, 34, 35, 36, 37, 38, 39, 40, 41]" pbc="F F F"
Li      -0.36790134      -1.21480326      -0.70367143  F        0        1
C        4.11550638       0.00238492      -0.14873813  T        1        2
C        4.00532283       1.39701334      -0.76659147  T        1        2
O        2.75247693       1.33588018      -1.47312769  T        1        2
C        2.05468955       0.28368024      -1.04460958  T        1        2
O        2.76175111      -0.48172119      -0.21080296  T        1        2
O        0.92181803       0.05322662      -1.37692113  T        1        2
H        4.74703389      -0.67268707      -0.72814304  T        1        2
H        4.43155615       0.00937759       0.89234823  T        1        2
H        3.93757046       2.18978213      -0.02027676  T        1        2
H        4.79321380       1.62287589      -1.48211370  T        1        2
C       -3.97247653       1.96251164      -2.40050771  F        0        1
C       -3.09637962       2.54228929      -1.28925079  F        0        1
O       -2.15777419       1.48103893      -1.03617829  F        0        1
C       -2.60574683       0.35158267      -1.58783037  F        0        1
O       -3.70666141       0.55031183      -2.31382968  F        0        1
O       -2.08474226      -0.72326786      -1.44670110  F        0        1
H       -5.03766703       2.12205400      -2.24660615  F        0        1
H       -3.68152741       2.30385723      -3.39492965  F        0        1
H       -2.54105321       3.42893406      -1.58798152  F        0        1
H       -3.64821902       2.73730614      -0.36856649  F        0        1
C       -2.04399873      -3.52841361       3.00419852  F        0        1
C       -1.02685364      -3.01455326       4.02389703  F        0        1
O       -0.45191291      -1.87625826       3.35566611  F        0        1
C       -0.74902326      -1.93012733       2.05681788  F        0        1
O       -1.60361649      -2.91717685       1.77829880  F        0        1
O       -0.30030366      -1.17264191       1.23750716  F        0        1
H       -2.02694015      -4.60877156       2.87635939  F        0        1
H       -3.06089885      -3.19058426       3.20941929  F        0        1
H       -1.47367608      -2.67628203       4.95643600  F        0        1
H       -0.22830195      -3.72928928       4.22775018  F        0        1
C       -0.65228970      -5.39197543      -3.66292208  F        0        1
C       -0.61600342      -4.08668818      -4.45952697  F        0        1
O       -0.56520643      -3.08380742      -3.42909773  F        0        1
C       -0.24661449      -3.65658960      -2.26618506  F        0        1
O       -0.19293699      -4.98597604      -2.36067918  F        0        1
O       -0.02802153      -3.05079966      -1.25095512  F        0        1
H       -1.65879059      -5.79929702      -3.55793624  F        0        1
H        0.02290921      -6.15582046      -4.04304152  F        0        1
H        0.27756513      -3.98776391      -5.07749187  F        0        1
H       -1.50720144      -3.91815183      -5.06061647  F        0        1
41
Properties=species:S:1:pos:R:3:is_solvent:L:1:group_label:I:1:tags:I:1 Coordinates=T from=T ORCA-job=T Li1EC4_r03_charge_1_spin_1_liquid_t_traj_1_frame_0000=T E=T -1378.044319799115=T solvent_indices_0based="_JSON [1, 2, 3, 4, 5, 6, 7, 8, 9, 10]" complex_indices_0based="_JSON [0, 11, 12, 13, 14, 15, 16, 17, 18, 19, 20, 21, 22, 23, 24, 25, 26, 27, 28, 29, 30, 31, 32, 33, 34, 35, 36, 37, 38, 39, 40]" complex_indices_1based="_JSON [1, 12, 13, 14, 15, 16, 17, 18, 19, 20, 21, 22, 23, 24, 25, 26, 27, 28, 29, 30, 31, 32, 33, 34, 35, 36, 37, 38, 39, 40, 41]" pbc="F F F"
Li      -0.36790100      -1.21480300      -0.70367100  F        0        1
C        4.11550600       0.00238500      -0.14873800  T        1        2
C        4.00532300       1.39701300      -0.76659100  T        1        2
O        2.75247700       1.33588000      -1.47312800  T        1        2
C        2.05469000       0.28368000      -1.04461000  T        1        2
O        2.76175100      -0.48172100      -0.21080300  T        1        2
O        0.92181800       0.05322700      -1.37692100  T        1        2
H        4.74703400      -0.67268700      -0.72814300  T        1        2
H        4.43155600       0.00937800       0.89234800  T        1        2
H        3.93757000       2.18978200      -0.02027700  T        1        2
H        4.79321400       1.62287600      -1.48211400  T        1        2
C       -3.97247700       1.96251200      -2.40050800  F        0        1
C       -3.09638000       2.54228900      -1.28925100  F        0        1
O       -2.15777400       1.48103900      -1.03617800  F        0        1
C       -2.60574700       0.35158300      -1.58783000  F        0        1
O       -3.70666100       0.55031200      -2.31383000  F        0        1
O       -2.08474200      -0.72326800      -1.44670100  F        0        1
H       -5.03766700       2.12205400      -2.24660600  F        0        1
H       -3.68152700       2.30385700      -3.39493000  F        0        1
H       -2.54105300       3.42893400      -1.58798200  F        0        1
H       -3.64821900       2.73730600      -0.36856600  F        0        1
C       -2.04399900      -3.52841400       3.00419900  F        0        1
C       -1.02685400      -3.01455300       4.02389700  F        0        1
O       -0.45191300      -1.87625800       3.35566600  F        0        1
C       -0.74902300      -1.93012700       2.05681800  F        0        1
O       -1.60361600      -2.91717700       1.77829900  F        0        1
O       -0.30030400      -1.17264200       1.23750700  F        0        1
H       -2.02694000      -4.60877200       2.87635900  F        0        1
H       -3.06089900      -3.19058400       3.20941900  F        0        1
H       -1.47367600      -2.67628200       4.95643600  F        0        1
H       -0.22830200      -3.72928900       4.22775000  F        0        1
C       -0.65229000      -5.39197500      -3.66292200  F        0        1
C       -0.61600300      -4.08668800      -4.45952700  F        0        1
O       -0.56520600      -3.08380700      -3.42909800  F        0        1
C       -0.24661400      -3.65659000      -2.26618500  F        0        1
O       -0.19293700      -4.98597600      -2.36067900  F        0        1
O       -0.02802200      -3.05080000      -1.25095500  F        0        1
H       -1.65879100      -5.79929700      -3.55793600  F        0        1
H        0.02290900      -6.15582000      -4.04304200  F        0        1
H        0.27756500      -3.98776400      -5.07749200  F        0        1
H       -1.50720100      -3.91815200      -5.06061600  F        0        1
41
Properties=species:S:1:pos:R:3:is_solvent:L:1:group_label:I:1:tags:I:1 Coordinates=T from=T ORCA-job=T Li1EC4_r03_charge_1_spin_1_liquid_t_traj_1_frame_0001=T E=T -1378.038540915547=T solvent_indices_0based="_JSON [1, 2, 3, 4, 5, 6, 7, 8, 9, 10]" complex_indices_0based="_JSON [0, 11, 12, 13, 14, 15, 16, 17, 18, 19, 20, 21, 22, 23, 24, 25, 26, 27, 28, 29, 30, 31, 32, 33, 34, 35, 36, 37, 38, 39, 40]" complex_indices_1based="_JSON [1, 12, 13, 14, 15, 16, 17, 18, 19, 20, 21, 22, 23, 24, 25, 26, 27, 28, 29, 30, 31, 32, 33, 34, 35, 36, 37, 38, 39, 40, 41]" pbc="F F F"
Li      -0.60196564      -1.41829394      -0.62155052  F        0        1
C        3.92551132       0.08157108      -0.35259740  T        1        2
C        3.90855875       1.48285584      -0.96297114  T        1        2
O        2.67356148       1.49553374      -1.69815572  T        1        2
C        1.89450727       0.49237790      -1.27626368  T        1        2
O        2.54439950      -0.31123220      -0.42077451  T        1        2
O        0.75782703       0.33017002      -1.62069303  T        1        2
H        4.51506667      -0.62826668      -0.93540594  T        1        2
H        4.23997832       0.06224039       0.68893912  T        1        2
H        3.87008888       2.27282163      -0.21104791  T        1        2
H        4.72651409       1.66741411      -1.65649681  T        1        2
C       -3.65213833       2.17481275      -2.36317648  F        0        1
C       -2.95926115       2.54650438      -1.05018946  F        0        1
O       -2.20351533       1.36182001      -0.73970445  F        0        1
C       -2.61473989       0.35574937      -1.50961229  F        0        1
O       -3.52857134       0.74120863      -2.39820138  F        0        1
O       -2.21512762      -0.77649112      -1.41152813  F        0        1
H       -4.70947742       2.43007139      -2.38827852  F        0        1
H       -3.14659000       2.58187444      -3.23975907  F        0        1
H       -2.26663876       3.38025491      -1.14517521  F        0        1
H       -3.65815839       2.72948452      -0.23298080  F        0        1
C       -1.79189272      -3.59387060       3.38469079  F        0        1
C       -0.83350775      -2.82368042       4.29403971  F        0        1
O       -0.43283929      -1.71302977       3.47015414  F        0        1
C       -0.75149455      -1.96685808       2.20235767  F        0        1
O       -1.46329592      -3.08789463       2.07628830  F        0        1
O       -0.43476712      -1.26209877       1.27941144  F        0        1
H       -1.62952558      -4.66957246       3.38772776  F        0        1
H       -2.84145359      -3.37140038       3.58182115  F        0        1
H       -1.30358089      -2.43341827       5.19426352  F        0        1
H        0.05837220      -3.39540207       4.55415578  F        0        1
C       -0.34435285      -5.23283670      -3.96975532  F        0        1
C       -0.40605817      -3.85454935      -4.63148823  F        0        1
O       -0.47855040      -2.96136310      -3.50411864  F        0        1
C       -0.15769243      -3.62133866      -2.39300144  F        0        1
O        0.02322449      -4.92236595      -2.61289669  F        0        1
O       -0.03836005      -3.10538239      -1.31078257  F        0        1
H       -1.30883647      -5.74207974      -3.95412766  F        0        1
H        0.41603088      -5.88667143      -4.39176439  F        0        1
H        0.49243068      -3.61238058      -5.20054971  F        0        1
H       -1.29068351      -3.70286812      -5.24635317  F        0        1
41
Properties=species:S:1:pos:R:3:is_solvent:L:1:group_label:I:1:tags:I:1 Coordinates=T from=T ORCA-job=T Li1EC4_r03_charge_1_spin_1_liquid_t_traj_1_frame_0001=T E=T -1378.038540915547=T solvent_indices_0based="_JSON [1, 2, 3, 4, 5, 6, 7, 8, 9, 10]" complex_indices_0based="_JSON [0, 11, 12, 13, 14, 15, 16, 17, 18, 19, 20, 21, 22, 23, 24, 25, 26, 27, 28, 29, 30, 31, 32, 33, 34, 35, 36, 37, 38, 39, 40]" complex_indices_1based="_JSON [1, 12, 13, 14, 15, 16, 17, 18, 19, 20, 21, 22, 23, 24, 25, 26, 27, 28, 29, 30, 31, 32, 33, 34, 35, 36, 37, 38, 39, 40, 41]" pbc="F F F"
Li      -0.60196600      -1.41829400      -0.62155100  F        0        1
C        3.92551100       0.08157100      -0.35259700  T        1        2
C        3.90855900       1.48285600      -0.96297100  T        1        2
O        2.67356100       1.49553400      -1.69815600  T        1        2
C        1.89450700       0.49237800      -1.27626400  T        1        2
O        2.54439900      -0.31123200      -0.42077500  T        1        2
O        0.75782700       0.33017000      -1.62069300  T        1        2
H        4.51506700      -0.62826700      -0.93540600  T        1        2
H        4.23997800       0.06224000       0.68893900  T        1        2
H        3.87008900       2.27282200      -0.21104800  T        1        2
H        4.72651400       1.66741400      -1.65649700  T        1        2
C       -3.65213800       2.17481300      -2.36317600  F        0        1
C       -2.95926100       2.54650400      -1.05018900  F        0        1
O       -2.20351500       1.36182000      -0.73970400  F        0        1
C       -2.61474000       0.35574900      -1.50961200  F        0        1
O       -3.52857100       0.74120900      -2.39820100  F        0        1
O       -2.21512800      -0.77649100      -1.41152800  F        0        1
H       -4.70947700       2.43007100      -2.38827900  F        0        1
H       -3.14659000       2.58187400      -3.23975900  F        0        1
H       -2.26663900       3.38025500      -1.14517500  F        0        1
H       -3.65815800       2.72948500      -0.23298100  F        0        1
C       -1.79189300      -3.59387100       3.38469100  F        0        1
C       -0.83350800      -2.82368000       4.29404000  F        0        1
O       -0.43283900      -1.71303000       3.47015400  F        0        1
C       -0.75149500      -1.96685800       2.20235800  F        0        1
O       -1.46329600      -3.08789500       2.07628800  F        0        1
O       -0.43476700      -1.26209900       1.27941100  F        0        1
H       -1.62952600      -4.66957200       3.38772800  F        0        1
H       -2.84145400      -3.37140000       3.58182100  F        0        1
H       -1.30358100      -2.43341800       5.19426400  F        0        1
H        0.05837200      -3.39540200       4.55415600  F        0        1
C       -0.34435300      -5.23283700      -3.96975500  F        0        1
C       -0.40605800      -3.85454900      -4.63148800  F        0        1
O       -0.47855000      -2.96136300      -3.50411900  F        0        1
C       -0.15769200      -3.62133900      -2.39300100  F        0        1
O        0.02322400      -4.92236600      -2.61289700  F        0        1
O       -0.03836000      -3.10538200      -1.31078300  F        0        1
H       -1.30883600      -5.74208000      -3.95412800  F        0        1
H        0.41603100      -5.88667100      -4.39176400  F        0        1
H        0.49243100      -3.61238100      -5.20055000  F        0        1
H       -1.29068400      -3.70286800      -5.24635300  F        0        1
41
Properties=species:S:1:pos:R:3:is_solvent:L:1:group_label:I:1:tags:I:1 Coordinates=T from=T ORCA-job=T Li1EC4_r03_charge_1_spin_1_liquid_t_traj_1_frame_0002=T E=T -1378.041838119625=T solvent_indices_0based="_JSON [1, 2, 3, 4, 5, 6, 7, 8, 9, 10]" complex_indices_0based="_JSON [0, 11, 12, 13, 14, 15, 16, 17, 18, 19, 20, 21, 22, 23, 24, 25, 26, 27, 28, 29, 30, 31, 32, 33, 34, 35, 36, 37, 38, 39, 40]" complex_indices_1based="_JSON [1, 12, 13, 14, 15, 16, 17, 18, 19, 20, 21, 22, 23, 24, 25, 26, 27, 28, 29, 30, 31, 32, 33, 34, 35, 36, 37, 38, 39, 40, 41]" pbc="F F F"
Li       0.20329493      -1.36550556      -0.11485550  F        0        1
C        3.21248594      -0.10599337      -0.06334150  T        1        2
C        3.73030544       1.19351920      -0.66858472  T        1        2
O        2.61543116       1.63537573      -1.46607622  T        1        2
C        1.50730168       1.01003749      -1.07499801  T        1        2
O        1.78535522       0.06723332      -0.14950721  T        1        2
O        0.40018968       1.22473792      -1.46992973  T        1        2
H        3.48427670      -0.98247734      -0.64760985  T        1        2
H        3.47761637      -0.24433136       0.97898097  T        1        2
H        3.93899198       1.95661255       0.07847535  T        1        2
H        4.58994367       1.06221532      -1.32104044  T        1        2
C       -2.17626312       0.79790464      -3.26750433  F        0        1
C       -2.98619231       1.64310927      -2.28089973  F        0        1
O       -2.67217925       1.04657447      -1.01050576  F        0        1
C       -2.01713111      -0.08997892      -1.19374825  F        0        1
O       -1.85629609      -0.37288910      -2.49368691  F        0        1
O       -1.62756739      -0.79853232      -0.29631199  F        0        1
H       -2.74212273       0.48832326      -4.14294531  F        0        1
H       -1.24221815       1.27427836      -3.55943884  F        0        1
H       -2.67795096       2.68445909      -2.25072492  F        0        1
H       -4.06104491       1.57307980      -2.43268171  F        0        1
C       -1.75304712      -3.18336477       3.79760090  F        0        1
C       -0.59559302      -2.85436045       4.74133552  F        0        1
O        0.29127051      -2.08798018       3.90199828  F        0        1
C       -0.05886483      -2.24760077       2.63042194  F        0        1
O       -1.17911561      -2.95089411       2.49625986  F        0        1
O        0.57737170      -1.80785813       1.70738818  F        0        1
H       -2.07672641      -4.21980757       3.85060116  F        0        1
H       -2.60656296      -2.51560099       3.91606178  F        0        1
H       -0.88278327      -2.23546725       5.58814923  F        0        1
H       -0.05712679      -3.73683977       5.08597709  F        0        1
C       -0.43912530      -3.00882634      -4.82271904  F        0        1
C       -1.48348125      -3.50301778      -3.82476019  F        0        1
O       -0.81504267      -3.32472020      -2.56329508  F        0        1
C        0.20225380      -2.48146015      -2.72359689  F        0        1
O        0.42545665      -2.19675335      -4.00019528  F        0        1
O        0.85448791      -2.02940138      -1.81050083  F        0        1
H        0.15620516      -3.81273959      -5.24822531  F        0        1
H       -0.84606996      -2.38500143      -5.61762143  F        0        1
H       -2.38687139      -2.89489949      -3.81461540  F        0        1
H       -1.73554329      -4.55497874      -3.93730034  F        0        1
41
Properties=species:S:1:pos:R:3:is_solvent:L:1:group_label:I:1:tags:I:1 Coordinates=T from=T ORCA-job=T Li1EC4_r03_charge_1_spin_1_liquid_t_traj_1_frame_0002=T E=T -1378.041838119625=T solvent_indices_0based="_JSON [1, 2, 3, 4, 5, 6, 7, 8, 9, 10]" complex_indices_0based="_JSON [0, 11, 12, 13, 14, 15, 16, 17, 18, 19, 20, 21, 22, 23, 24, 25, 26, 27, 28, 29, 30, 31, 32, 33, 34, 35, 36, 37, 38, 39, 40]" complex_indices_1based="_JSON [1, 12, 13, 14, 15, 16, 17, 18, 19, 20, 21, 22, 23, 24, 25, 26, 27, 28, 29, 30, 31, 32, 33, 34, 35, 36, 37, 38, 39, 40, 41]" pbc="F F F"
Li       0.20329500      -1.36550600      -0.11485600  F        0        1
C        3.21248600      -0.10599300      -0.06334100  T        1        2
C        3.73030500       1.19351900      -0.66858500  T        1        2
O        2.61543100       1.63537600      -1.46607600  T        1        2
C        1.50730200       1.01003700      -1.07499800  T        1        2
O        1.78535500       0.06723300      -0.14950700  T        1        2
O        0.40019000       1.22473800      -1.46993000  T        1        2
H        3.48427700      -0.98247700      -0.64761000  T        1        2
H        3.47761600      -0.24433100       0.97898100  T        1        2
H        3.93899200       1.95661300       0.07847500  T        1        2
H        4.58994400       1.06221500      -1.32104000  T        1        2
C       -2.17626300       0.79790500      -3.26750400  F        0        1
C       -2.98619200       1.64310900      -2.28090000  F        0        1
O       -2.67217900       1.04657400      -1.01050600  F        0        1
C       -2.01713100      -0.08997900      -1.19374800  F        0        1
O       -1.85629600      -0.37288900      -2.49368700  F        0        1
O       -1.62756700      -0.79853200      -0.29631200  F        0        1
H       -2.74212300       0.48832300      -4.14294500  F        0        1
H       -1.24221800       1.27427800      -3.55943900  F        0        1
H       -2.67795100       2.68445900      -2.25072500  F        0        1
H       -4.06104500       1.57308000      -2.43268200  F        0        1
C       -1.75304700      -3.18336500       3.79760100  F        0        1
C       -0.59559300      -2.85436000       4.74133600  F        0        1
O        0.29127100      -2.08798000       3.90199800  F        0        1
C       -0.05886500      -2.24760100       2.63042200  F        0        1
O       -1.17911600      -2.95089400       2.49626000  F        0        1
O        0.57737200      -1.80785800       1.70738800  F        0        1
H       -2.07672600      -4.21980800       3.85060100  F        0        1
H       -2.60656300      -2.51560100       3.91606200  F        0        1
H       -0.88278300      -2.23546700       5.58814900  F        0        1
H       -0.05712700      -3.73684000       5.08597700  F        0        1
C       -0.43912500      -3.00882600      -4.82271900  F        0        1
C       -1.48348100      -3.50301800      -3.82476000  F        0        1
O       -0.81504300      -3.32472000      -2.56329500  F        0        1
C        0.20225400      -2.48146000      -2.72359700  F        0        1
O        0.42545700      -2.19675300      -4.00019500  F        0        1
O        0.85448800      -2.02940100      -1.81050100  F        0        1
H        0.15620500      -3.81274000      -5.24822500  F        0        1
H       -0.84607000      -2.38500100      -5.61762100  F        0        1
H       -2.38687100      -2.89489900      -3.81461500  F        0        1
H       -1.73554300      -4.55497900      -3.93730000  F        0        1
41
Properties=species:S:1:pos:R:3:is_solvent:L:1:group_label:I:1:tags:I:1 Coordinates=T from=T ORCA-job=T Li1EC4_r03_charge_1_spin_1_liquid_t_traj_1_frame_0003=T E=T -1378.033747249758=T solvent_indices_0based="_JSON [1, 2, 3, 4, 5, 6, 7, 8, 9, 10]" complex_indices_0based="_JSON [0, 11, 12, 13, 14, 15, 16, 17, 18, 19, 20, 21, 22, 23, 24, 25, 26, 27, 28, 29, 30, 31, 32, 33, 34, 35, 36, 37, 38, 39, 40]" complex_indices_1based="_JSON [1, 12, 13, 14, 15, 16, 17, 18, 19, 20, 21, 22, 23, 24, 25, 26, 27, 28, 29, 30, 31, 32, 33, 34, 35, 36, 37, 38, 39, 40, 41]" pbc="F F F"
Li      -0.61939090      -1.92067161      -0.46221834  F        0        1
C        4.08391678       1.14404034      -1.26787645  T        1        2
C        3.75568999       2.63611792      -1.31660152  T        1        2
O        2.33292034       2.64153943      -1.51967727  T        1        2
C        1.83469765       1.43103954      -1.21985370  T        1        2
O        2.81114333       0.54726464      -0.97080342  T        1        2
O        0.66598731       1.17738921      -1.17921479  T        1        2
H        4.43237033       0.75425365      -2.22596064  T        1        2
H        4.78539906       0.87655453      -0.48010554  T        1        2
H        3.97219663       3.14915166      -0.37791342  T        1        2
H        4.22704265       3.16087319      -2.14524861  T        1        2
C       -2.04454111       2.42601645      -2.28292823  F        0        1
C       -2.18867415       2.42915461      -0.75403481  F        0        1
O       -2.14867342       1.03277032      -0.41008089  F        0        1
C       -1.95716078       0.30515882      -1.50239869  F        0        1
O       -1.97788473       1.02712380      -2.61236568  F        0        1
O       -1.80796547      -0.89532970      -1.49013930  F        0        1
H       -2.89930021       2.85630605      -2.80271603  F        0        1
H       -1.11924478       2.89287174      -2.61566988  F        0        1
H       -1.35604007       2.92196619      -0.25600438  F        0        1
H       -3.13795587       2.83470263      -0.40623348  F        0        1
C       -2.33122764      -3.64043739       3.88283414  F        0        1
C       -1.14337849      -3.02735926       4.62520340  F        0        1
O       -0.54477834      -2.18127959       3.62385107  F        0        1
C       -1.00969488      -2.52221590       2.42629440  F        0        1
O       -1.98443663      -3.42681394       2.49928944  F        0        1
O       -0.59354204      -2.06241506       1.39420936  F        0        1
H       -2.44736632      -4.70954992       4.04639046  F        0        1
H       -3.27163206      -3.12423285       4.07990735  F        0        1
H       -1.42856514      -2.40815722       5.47288793  F        0        1
H       -0.40245381      -3.76679418       4.93195610  F        0        1
C        0.32113942      -4.75533017      -4.53708646  F        0        1
C       -1.15667198      -4.54019105      -4.21043713  F        0        1
O       -1.10872513      -4.02851312      -2.86378027  F        0        1
C        0.12809230      -3.60987174      -2.59872027  F        0        1
O        0.98568561      -3.92498198      -3.56488374  F        0        1
O        0.43760628      -3.01726349      -1.59549323  F        0        1
H        0.64676161      -5.78528230      -4.38457048  F        0        1
H        0.60477729      -4.41561797      -5.53082255  F        0        1
H       -1.63051208      -3.78722603      -4.84155263  F        0        1
H       -1.74396984      -5.45581997      -4.20982193  F        0        1
41
Properties=species:S:1:pos:R:3:is_solvent:L:1:group_label:I:1:tags:I:1 Coordinates=T from=T ORCA-job=T Li1EC4_r03_charge_1_spin_1_liquid_t_traj_1_frame_0003=T E=T -1378.033747249758=T solvent_indices_0based="_JSON [1, 2, 3, 4, 5, 6, 7, 8, 9, 10]" complex_indices_0based="_JSON [0, 11, 12, 13, 14, 15, 16, 17, 18, 19, 20, 21, 22, 23, 24, 25, 26, 27, 28, 29, 30, 31, 32, 33, 34, 35, 36, 37, 38, 39, 40]" complex_indices_1based="_JSON [1, 12, 13, 14, 15, 16, 17, 18, 19, 20, 21, 22, 23, 24, 25, 26, 27, 28, 29, 30, 31, 32, 33, 34, 35, 36, 37, 38, 39, 40, 41]" pbc="F F F"
Li      -0.61939100      -1.92067200      -0.46221800  F        0        1
C        4.08391700       1.14404000      -1.26787600  T        1        2
C        3.75569000       2.63611800      -1.31660200  T        1        2
O        2.33292000       2.64153900      -1.51967700  T        1        2
C        1.83469800       1.43104000      -1.21985400  T        1        2
O        2.81114300       0.54726500      -0.97080300  T        1        2
O        0.66598700       1.17738900      -1.17921500  T        1        2
H        4.43237000       0.75425400      -2.22596100  T        1        2
H        4.78539900       0.87655500      -0.48010600  T        1        2
H        3.97219700       3.14915200      -0.37791300  T        1        2
H        4.22704300       3.16087300      -2.14524900  T        1        2
C       -2.04454100       2.42601600      -2.28292800  F        0        1
C       -2.18867400       2.42915500      -0.75403500  F        0        1
O       -2.14867300       1.03277000      -0.41008100  F        0        1
C       -1.95716100       0.30515900      -1.50239900  F        0        1
O       -1.97788500       1.02712400      -2.61236600  F        0        1
O       -1.80796500      -0.89533000      -1.49013900  F        0        1
H       -2.89930000       2.85630600      -2.80271600  F        0        1
H       -1.11924500       2.89287200      -2.61567000  F        0        1
H       -1.35604000       2.92196600      -0.25600400  F        0        1
H       -3.13795600       2.83470300      -0.40623300  F        0        1
C       -2.33122800      -3.64043700       3.88283400  F        0        1
C       -1.14337800      -3.02735900       4.62520300  F        0        1
O       -0.54477800      -2.18128000       3.62385100  F        0        1
C       -1.00969500      -2.52221600       2.42629400  F        0        1
O       -1.98443700      -3.42681400       2.49928900  F        0        1
O       -0.59354200      -2.06241500       1.39420900  F        0        1
H       -2.44736600      -4.70955000       4.04639000  F        0        1
H       -3.27163200      -3.12423300       4.07990700  F        0        1
H       -1.42856500      -2.40815700       5.47288800  F        0        1
H       -0.40245400      -3.76679400       4.93195600  F        0        1
C        0.32113900      -4.75533000      -4.53708600  F        0        1
C       -1.15667200      -4.54019100      -4.21043700  F        0        1
O       -1.10872500      -4.02851300      -2.86378000  F        0        1
C        0.12809200      -3.60987200      -2.59872000  F        0        1
O        0.98568600      -3.92498200      -3.56488400  F        0        1
O        0.43760600      -3.01726300      -1.59549300  F        0        1
H        0.64676200      -5.78528200      -4.38457000  F        0        1
H        0.60477700      -4.41561800      -5.53082300  F        0        1
H       -1.63051200      -3.78722600      -4.84155300  F        0        1
H       -1.74397000      -5.45582000      -4.20982200  F        0        1
41
Properties=species:S:1:pos:R:3:is_solvent:L:1:group_label:I:1:tags:I:1 Coordinates=T from=T ORCA-job=T Li1EC4_r03_charge_1_spin_1_liquid_t_traj_1_frame_0004=T E=T -1378.026019654149=T solvent_indices_0based="_JSON [1, 2, 3, 4, 5, 6, 7, 8, 9, 10]" complex_indices_0based="_JSON [0, 11, 12, 13, 14, 15, 16, 17, 18, 19, 20, 21, 22, 23, 24, 25, 26, 27, 28, 29, 30, 31, 32, 33, 34, 35, 36, 37, 38, 39, 40]" complex_indices_1based="_JSON [1, 12, 13, 14, 15, 16, 17, 18, 19, 20, 21, 22, 23, 24, 25, 26, 27, 28, 29, 30, 31, 32, 33, 34, 35, 36, 37, 38, 39, 40, 41]" pbc="F F F"
Li      -0.99625434      -1.74663366      -0.52344198  F        0        1
C        4.69864500       1.56877935      -0.15932129  T        1        2
C        4.15594745       2.99502033      -0.20704369  T        1        2