41
Properties=species:S:1:pos:R:3:is_solvent:L:1:group_label:I:1:tags:I:1 Coordinates=T from=T ORCA-job=T Li1EC4_r10_charge_1_spin_1_liquid_t_traj_4_frame_0000=T E=T -1378.043703988967=T solvent_indices_0based="_JSON [31, 32, 33, 34, 35, 36, 37, 38, 39, 40]" complex_indices_0based="_JSON [0, 1, 2, 3, 4, 5, 6, 7, 8, 9, 10, 11, 12, 13, 14, 15, 16, 17, 18, 19, 20, 21, 22, 23, 24, 25, 26, 27, 28, 29, 30]" complex_indices_1based="_JSON [1, 2, 3, 4, 5, 6, 7, 8, 9, 10, 11, 12, 13, 14, 15, 16, 17, 18, 19, 20, 21, 22, 23, 24, 25, 26, 27, 28, 29, 30, 31]" pbc="F F F"
Li       0.56985481       0.22462419       0.54956560  F        0        1
C        5.32231219      -0.94539549      -0.99630573  F        0        1
C        5.13750720       0.52989128      -0.63924235  F        0        1
O        3.78627943       0.57136798      -0.14506584  F        0        1
C        3.14883520      -0.54470704      -0.51180900  F        0        1
O        3.96781176      -1.42189087      -1.08998966  F        0        1
O        1.97463069      -0.73791319      -0.34326294  F        0        1
H        5.81129740      -1.10652993      -1.95474285  F        0        1
H        5.83074014      -1.51281650      -0.21534702  F        0        1
H        5.80412184       0.87524091       0.14832037  F        0        1
H        5.20537336       1.18910033      -1.50603892  F        0        1
C       -0.54775544      -4.24593369       1.43611637  F        0        1
C       -2.06244248      -4.11042024       1.27655001  F        0        1
O       -2.20871425      -2.78039106       0.74576435  F        0        1
C       -1.07523083      -2.10483521       0.92972142  F        0        1
O       -0.10394393      -2.87685824       1.42108422  F        0        1
O       -0.94880231      -0.93411940       0.68328587  F        0        1
H       -0.24551499      -4.69649832       2.37920486  F        0        1
H       -0.07555073      -4.76686938       0.60188102  F        0        1
H       -2.49297415      -4.81372813       0.56683812  F        0        1
H       -2.59796056      -4.16002680       2.22584265  F        0        1
C       -2.05592724       4.46481637      -0.56087655  F        0        1
C       -2.79155048       3.41972488       0.27747113  F        0        1
O       -1.92891943       2.27351314       0.18003334  F        0        1
C       -0.72991578       2.65844832      -0.25792724  F        0        1
O       -0.71213661       3.94910320      -0.60066630  F        0        1
O        0.22574934       1.93310810      -0.33643285  F        0        1
H       -2.42846948       4.52970206      -1.58427585  F        0        1
H       -2.03355898       5.45431271      -0.10888917  F        0        1
H       -2.87444049       3.69690282       1.32968871  F        0        1
H       -3.76933011       3.15090331      -0.11666303  F        0        1
C        2.37250780       3.68424796       3.89735433  T        1        2
C        1.20876225       4.21106328       3.05879471  T        1        2
O        0.60053649       3.00199037       2.56827496  T        1        2
C        1.46936820       1.98865637       2.69838973  T        1        2
O        2.55370227       2.35284892       3.38415479  T        1        2
O        1.29252727       0.88678483       2.25810657  T        1        2
H        3.29816374       4.23833484       3.75646239  T        1        2
H        2.13539147       3.61350280       4.95997694  T        1        2
H        0.46877962       4.76096466       3.63684668  T        1        2
H        1.53486312       4.80157313       2.20081321  T        1        2
41
Properties=species:S:1:pos:R:3:is_solvent:L:1:group_label:I:1:tags:I:1 Coordinates=T from=T ORCA-job=T Li1EC4_r10_charge_1_spin_1_liquid_t_traj_4_frame_0000=T E=T -1378.043703988967=T solvent_indices_0based="_JSON [31, 32, 33, 34, 35, 36, 37, 38, 39, 40]" complex_indices_0based="_JSON [0, 1, 2, 3, 4, 5, 6, 7, 8, 9, 10, 11, 12, 13, 14, 15, 16, 17, 18, 19, 20, 21, 22, 23, 24, 25, 26, 27, 28, 29, 30]" complex_indices_1based="_JSON [1, 2, 3, 4, 5, 6, 7, 8, 9, 10, 11, 12, 13, 14, 15, 16, 17, 18, 19, 20, 21, 22, 23, 24, 25, 26, 27, 28, 29, 30, 31]" pbc="F F F"
Li       0.56985500       0.22462400       0.54956600  F        0        1
C        5.32231200      -0.94539500      -0.99630600  F        0        1
C        5.13750700       0.52989100      -0.63924200  F        0        1
O        3.78627900       0.57136800      -0.14506600  F        0        1
C        3.14883500      -0.54470700      -0.51180900  F        0        1
O        3.96781200      -1.42189100      -1.08999000  F        0        1
O        1.97463100      -0.73791300      -0.34326300  F        0        1
H        5.81129700      -1.10653000      -1.95474300  F        0        1
H        5.83074000      -1.51281700      -0.21534700  F        0        1
H        5.80412200       0.87524100       0.14832000  F        0        1
H        5.20537300       1.18910000      -1.50603900  F        0        1
C       -0.54775500      -4.24593400       1.43611600  F        0        1
C       -2.06244200      -4.11042000       1.27655000  F        0        1
O       -2.20871400      -2.78039100       0.74576400  F        0        1
C       -1.07523100      -2.10483500       0.92972100  F        0        1
O       -0.10394400      -2.87685800       1.42108400  F        0        1
O       -0.94880200      -0.93411900       0.68328600  F        0        1
H       -0.24551500      -4.69649800       2.37920500  F        0        1
H       -0.07555100      -4.76686900       0.60188100  F        0        1
H       -2.49297400      -4.81372800       0.56683800  F        0        1
H       -2.59796100      -4.16002700       2.22584300  F        0        1
C       -2.05592700       4.46481600      -0.56087700  F        0        1
C       -2.79155000       3.41972500       0.27747100  F        0        1
O       -1.92891900       2.27351300       0.18003300  F        0        1
C       -0.72991600       2.65844800      -0.25792700  F        0        1
O       -0.71213700       3.94910300      -0.60066600  F        0        1
O        0.22574900       1.93310800      -0.33643300  F        0        1
H       -2.42846900       4.52970200      -1.58427600  F        0        1
H       -2.03355900       5.45431300      -0.10888900  F        0        1
H       -2.87444000       3.69690300       1.32968900  F        0        1
H       -3.76933000       3.15090300      -0.11666300  F        0        1
C        2.37250800       3.68424800       3.89735400  T        1        2
C        1.20876200       4.21106300       3.05879500  T        1        2
O        0.60053600       3.00199000       2.56827500  T        1        2
C        1.46936800       1.98865600       2.69839000  T        1        2
O        2.55370200       2.35284900       3.38415500  T        1        2
O        1.29252700       0.88678500       2.25810700  T        1        2
H        3.29816400       4.23833500       3.75646200  T        1        2
H        2.13539100       3.61350300       4.95997700  T        1        2
H        0.46878000       4.76096500       3.63684700  T        1        2
H        1.53486300       4.80157300       2.20081300  T        1        2
41
Properties=species:S:1:pos:R:3:is_solvent:L:1:group_label:I:1:tags:I:1 Coordinates=T from=T ORCA-job=T Li1EC4_r10_charge_1_spin_1_liquid_t_traj_4_frame_0001=T E=T -1378.039145563780=T solvent_indices_0based="_JSON [31, 32, 33, 34, 35, 36, 37, 38, 39, 40]" complex_indices_0based="_JSON [0, 1, 2, 3, 4, 5, 6, 7, 8, 9, 10, 11, 12, 13, 14, 15, 16, 17, 18, 19, 20, 21, 22, 23, 24, 25, 26, 27, 28, 29, 30]" complex_indices_1based="_JSON [1, 2, 3, 4, 5, 6, 7, 8, 9, 10, 11, 12, 13, 14, 15, 16, 17, 18, 19, 20, 21, 22, 23, 24, 25, 26, 27, 28, 29, 30, 31]" pbc="F F F"
Li       0.42286471       0.06803016       0.17901933  F        0        1
C        5.40944150      -0.62259117       0.24402792  F        0        1
C        5.01195611       0.85218974       0.12193493  F        0        1
O        3.57706194       0.79683135       0.04108900  F        0        1
C        3.18568854      -0.46396615      -0.14421073  F        0        1
O        4.20536475      -1.31649586      -0.12917166  F        0        1
O        2.03961844      -0.79435870      -0.31116097  F        0        1
H        6.20263632      -0.91864692      -0.43944990  F        0        1
H        5.66579350      -0.91213399       1.26361048  F        0        1
H        5.28078448       1.44573913       0.99364419  F        0        1
H        5.38726249       1.32227180      -0.78772525  F        0        1
C       -0.80732082      -4.38677235       1.19147656  F        0        1
C       -2.30046877      -4.22419355       0.90217803  F        0        1
O       -2.37001705      -2.91177047       0.31192991  F        0        1
C       -1.23635264      -2.25987813       0.55296150  F        0        1
O       -0.32579918      -3.02986998       1.14652043  F        0        1
O       -1.05927401      -1.10255190       0.26718222  F        0        1
H       -0.59408225      -4.79537851       2.17690760  F        0        1
H       -0.28291813      -4.95916567       0.42520701  F        0        1
H       -2.68884731      -4.94441980       0.18527857  F        0        1
H       -2.91355131      -4.22433245       1.80440581  F        0        1
C       -2.12076824       4.39395431       0.26878332  F        0        1
C       -2.60987175       3.25936300       1.16766419  F        0        1
O       -1.84127809       2.13720325       0.69832949  F        0        1
C       -0.79696899       2.58239430       0.00411595  F        0        1
O       -0.85138700       3.89861590      -0.20111684  F        0        1
O        0.09725514       1.88001855      -0.39530868  F        0        1
H       -2.76377373       4.56134308      -0.59640349  F        0        1
H       -1.95284363       5.33099076       0.79574396  F        0        1
H       -2.37263380       3.41554273       2.22102343  F        0        1
H       -3.66614180       3.02890378       1.04762700  F        0        1
C        2.88318597       3.90637676       2.91878631  T        1        2
C        1.51766146       4.32351919       2.38034209  T        1        2
O        0.78694230       3.08538415       2.39331395  T        1        2
C        1.65877339       2.05778167       2.43504185  T        1        2
O        2.90870956       2.49521611       2.64725813  T        1        2
O        1.35344710       0.90951176       2.30633609  T        1        2
H        3.71741962       4.37684859       2.40215567  T        1        2
H        2.97849752       4.05352220       3.99606205  T        1        2
H        1.00045322       5.04064291       3.01499624  T        1        2
H        1.55864054       4.68741331       1.35183794  T        1        2
41
Properties=species:S:1:pos:R:3:is_solvent:L:1:group_label:I:1:tags:I:1 Coordinates=T from=T ORCA-job=T Li1EC4_r10_charge_1_spin_1_liquid_t_traj_4_frame_0001=T E=T -1378.039145563780=T solvent_indices_0based="_JSON [31, 32, 33, 34, 35, 36, 37, 38, 39, 40]" complex_indices_0based="_JSON [0, 1, 2, 3, 4, 5, 6, 7, 8, 9, 10, 11, 12, 13, 14, 15, 16, 17, 18, 19, 20, 21, 22, 23, 24, 25, 26, 27, 28, 29, 30]" complex_indices_1based="_JSON [1, 2, 3, 4, 5, 6, 7, 8, 9, 10, 11, 12, 13, 14, 15, 16, 17, 18, 19, 20, 21, 22, 23, 24, 25, 26, 27, 28, 29, 30, 31]" pbc="F F F"
Li       0.42286500       0.06803000       0.17901900  F        0        1
C        5.40944200      -0.62259100       0.24402800  F        0        1
C        5.01195600       0.85219000       0.12193500  F        0        1
O        3.57706200       0.79683100       0.04108900  F        0        1
C        3.18568900      -0.46396600      -0.14421100  F        0        1
O        4.20536500      -1.31649600      -0.12917200  F        0        1
O        2.03961800      -0.79435900      -0.31116100  F        0        1
H        6.20263600      -0.91864700      -0.43945000  F        0        1
H        5.66579400      -0.91213400       1.26361000  F        0        1
H        5.28078400       1.44573900       0.99364400  F        0        1
H        5.38726200       1.32227200      -0.78772500  F        0        1
C       -0.80732100      -4.38677200       1.19147700  F        0        1
C       -2.30046900      -4.22419400       0.90217800  F        0        1
O       -2.37001700      -2.91177000       0.31193000  F        0        1
C       -1.23635300      -2.25987800       0.55296200  F        0        1
O       -0.32579900      -3.02987000       1.14652000  F        0        1
O       -1.05927400      -1.10255200       0.26718200  F        0        1
H       -0.59408200      -4.79537900       2.17690800  F        0        1
H       -0.28291800      -4.95916600       0.42520700  F        0        1
H       -2.68884700      -4.94442000       0.18527900  F        0        1
H       -2.91355100      -4.22433200       1.80440600  F        0        1
C       -2.12076800       4.39395400       0.26878300  F        0        1
C       -2.60987200       3.25936300       1.16766400  F        0        1
O       -1.84127800       2.13720300       0.69832900  F        0        1
C       -0.79696900       2.58239400       0.00411600  F        0        1
O       -0.85138700       3.89861600      -0.20111700  F        0        1
O        0.09725500       1.88001900      -0.39530900  F        0        1
H       -2.76377400       4.56134300      -0.59640300  F        0        1
H       -1.95284400       5.33099100       0.79574400  F        0        1
H       -2.37263400       3.41554300       2.22102300  F        0        1
H       -3.66614200       3.02890400       1.04762700  F        0        1
C        2.88318600       3.90637700       2.91878600  T        1        2
C        1.51766100       4.32351900       2.38034200  T        1        2
O        0.78694200       3.08538400       2.39331400  T        1        2
C        1.65877300       2.05778200       2.43504200  T        1        2
O        2.90871000       2.49521600       2.64725800  T        1        2
O        1.35344700       0.90951200       2.30633600  T        1        2
H        3.71742000       4.37684900       2.40215600  T        1        2
H        2.97849800       4.05352200       3.99606200  T        1        2
H        1.00045300       5.04064300       3.01499600  T        1        2
H        1.55864100       4.68741300       1.35183800  T        1        2
41
Properties=species:S:1:pos:R:3:is_solvent:L:1:group_label:I:1:tags:I:1 Coordinates=T from=T ORCA-job=T Li1EC4_r10_charge_1_spin_1_liquid_t_traj_4_frame_0002=T E=T -1378.037059583041=T solvent_indices_0based="_JSON [31, 32, 33, 34, 35, 36, 37, 38, 39, 40]" complex_indices_0based="_JSON [0, 1, 2, 3, 4, 5, 6, 7, 8, 9, 10, 11, 12, 13, 14, 15, 16, 17, 18, 19, 20, 21, 22, 23, 24, 25, 26, 27, 28, 29, 30]" complex_indices_1based="_JSON [1, 2, 3, 4, 5, 6, 7, 8, 9, 10, 11, 12, 13, 14, 15, 16, 17, 18, 19, 20, 21, 22, 23, 24, 25, 26, 27, 28, 29, 30, 31]" pbc="F F F"
Li       0.41009972       0.03435580      -0.01775737  F        0        1
C        5.01408377      -0.35046090       1.60109900  F        0        1
C        5.14693302       0.64994114       0.45417550  F        0        1
O        3.83739554       0.61910187      -0.14491256  F        0        1
C        3.17760244      -0.44751145       0.30053108  F        0        1
O        3.86244882      -1.12392581       1.21273740  F        0        1
O        2.08584432      -0.77467531      -0.09798732  F        0        1
H        5.86301225      -1.02352536       1.69902511  F        0        1
H        4.78930631       0.12708859       2.55525050  F        0        1
H        5.34422774       1.66609328       0.78783548  F        0        1
H        5.87387848       0.34524886      -0.29997339  F        0        1
C       -0.95241182      -4.43706619       0.79915068  F        0        1
C       -2.39544274      -4.26144698       0.32310680  F        0        1
O       -2.38674601      -2.93423168      -0.23986048  F        0        1
C       -1.29018029      -2.29578552       0.15509153  F        0        1
O       -0.46398165      -3.08201012       0.84093918  F        0        1
O       -1.07539337      -1.13239585      -0.08081793  F        0        1
H       -0.86860703      -4.86312427       1.79658457  F        0        1
H       -0.33564406      -4.99907165       0.09682166  F        0        1
H       -2.68836406      -4.96153811      -0.45629310  F        0        1
H       -3.12086451      -4.27979732       1.13735473  F        0        1
C       -2.29803178       4.08587955       1.12861637  F        0        1
C       -2.34683898       2.90968971       2.10290685  F        0        1
O       -1.61113473       1.89144774       1.39952832  F        0        1
C       -0.88937306       2.46056450       0.43776861  F        0        1
O       -1.17971367       3.75055604       0.28227371  F        0        1
O       -0.06556092       1.87631794      -0.22142478  F        0        1
H       -3.18820699       4.16001849       0.50266475  F        0        1
H       -2.09463658       5.04293511       1.60452631  F        0        1
H       -1.83128194       3.11022531       3.04282763  F        0        1
H       -3.35237853       2.54034769       2.29181799  F        0        1
C        3.20901525       4.43358325       2.10132487  T        1        2
C        1.71199163       4.65744990       1.91124874  T        1        2
O        1.15948426       3.37585418       2.26203642  T        1        2
C        2.12216053       2.43787958       2.15760620  T        1        2
O        3.32832294       3.00530421       1.97985665  T        1        2
O        1.93196362       1.26080100       2.21809613  T        1        2
H        3.82167937       4.89847834       1.33144833  T        1        2
H        3.56056624       4.72624534       3.09222333  T        1        2
H        1.29559439       5.41002135       2.57798141  T        1        2
H        1.44352500       4.87551020       0.87605135  T        1        2
41
Properties=species:S:1:pos:R:3:is_solvent:L:1:group_label:I:1:tags:I:1 Coordinates=T from=T ORCA-job=T Li1EC4_r10_charge_1_spin_1_liquid_t_traj_4_frame_0002=T E=T -1378.037059583041=T solvent_indices_0based="_JSON [31, 32, 33, 34, 35, 36, 37, 38, 39, 40]" complex_indices_0based="_JSON [0, 1, 2, 3, 4, 5, 6, 7, 8, 9, 10, 11, 12, 13, 14, 15, 16, 17, 18, 19, 20, 21, 22, 23, 24, 25, 26, 27, 28, 29, 30]" complex_indices_1based="_JSON [1, 2, 3, 4, 5, 6, 7, 8, 9, 10, 11, 12, 13, 14, 15, 16, 17, 18, 19, 20, 21, 22, 23, 24, 25, 26, 27, 28, 29, 30, 31]" pbc="F F F"
Li       0.41010000       0.03435600      -0.01775700  F        0        1
C        5.01408400      -0.35046100       1.60109900  F        0        1
C        5.14693300       0.64994100       0.45417500  F        0        1
O        3.83739600       0.61910200      -0.14491300  F        0        1
C        3.17760200      -0.44751100       0.30053100  F        0        1
O        3.86244900      -1.12392600       1.21273700  F        0        1
O        2.08584400      -0.77467500      -0.09798700  F        0        1
H        5.86301200      -1.02352500       1.69902500  F        0        1
H        4.78930600       0.12708900       2.55525000  F        0        1
H        5.34422800       1.66609300       0.78783500  F        0        1
H        5.87387800       0.34524900      -0.29997300  F        0        1
C       -0.95241200      -4.43706600       0.79915100  F        0        1
C       -2.39544300      -4.26144700       0.32310700  F        0        1
O       -2.38674600      -2.93423200      -0.23986000  F        0        1
C       -1.29018000      -2.29578600       0.15509200  F        0        1
O       -0.46398200      -3.08201000       0.84093900  F        0        1
O       -1.07539300      -1.13239600      -0.08081800  F        0        1
H       -0.86860700      -4.86312400       1.79658500  F        0        1
H       -0.33564400      -4.99907200       0.09682200  F        0        1
H       -2.68836400      -4.96153800      -0.45629300  F        0        1
H       -3.12086500      -4.27979700       1.13735500  F        0        1
C       -2.29803200       4.08588000       1.12861600  F        0        1
C       -2.34683900       2.90969000       2.10290700  F        0        1
O       -1.61113500       1.89144800       1.39952800  F        0        1
C       -0.88937300       2.46056500       0.43776900  F        0        1
O       -1.17971400       3.75055600       0.28227400  F        0        1
O       -0.06556100       1.87631800      -0.22142500  F        0        1
H       -3.18820700       4.16001800       0.50266500  F        0        1
H       -2.09463700       5.04293500       1.60452600  F        0        1
H       -1.83128200       3.11022500       3.04282800  F        0        1
H       -3.35237900       2.54034800       2.29181800  F        0        1
C        3.20901500       4.43358300       2.10132500  T        1        2
C        1.71199200       4.65745000       1.91124900  T        1        2
O        1.15948400       3.37585400       2.26203600  T        1        2
C        2.12216100       2.43788000       2.15760600  T        1        2
O        3.32832300       3.00530400       1.97985700  T        1        2
O        1.93196400       1.26080100       2.21809600  T        1        2
H        3.82167900       4.89847800       1.33144800  T        1        2
H        3.56056600       4.72624500       3.09222300  T        1        2
H        1.29559400       5.41002100       2.57798100  T        1        2
H        1.44352500       4.87551000       0.87605100  T        1        2
41
Properties=species:S:1:pos:R:3:is_solvent:L:1:group_label:I:1:tags:I:1 Coordinates=T from=T ORCA-job=T Li1EC4_r10_charge_1_spin_1_liquid_t_traj_4_frame_0003=T E=T -1378.037695330290=T solvent_indices_0based="_JSON [31, 32, 33, 34, 35, 36, 37, 38, 39, 40]" complex_indices_0based="_JSON [0, 1, 2, 3, 4, 5, 6, 7, 8, 9, 10, 11, 12, 13, 14, 15, 16, 17, 18, 19, 20, 21, 22, 23, 24, 25, 26, 27, 28, 29, 30]" complex_indices_1based="_JSON [1, 2, 3, 4, 5, 6, 7, 8, 9, 10, 11, 12, 13, 14, 15, 16, 17, 18, 19, 20, 21, 22, 23, 24, 25, 26, 27, 28, 29, 30, 31]" pbc="F F F"
Li       0.35232708      -0.16508233       0.60381400  F        0        1
C        4.86080660      -0.10649527       2.72493642  F        0        1
C        5.20451819       0.47720859       1.35197179  F        0        1
O        3.97701860       0.31541324       0.61540915  F        0        1
C        3.14623441      -0.45555293       1.30622592  F        0        1
O        3.65152182      -0.84508310       2.46634849  F        0        1
O        2.05643750      -0.78809698       0.90275895  F        0        1
H        5.60848705      -0.79828398       3.10709046  F        0        1
H        4.62976655       0.65992144       3.46382002  F        0        1
H        5.44154036       1.53840714       1.38188267  F        0        1
H        5.98722874      -0.07583987       0.83173867  F        0        1
C       -1.24289445      -4.45337026      -0.89976397  F        0        1
C       -2.48193191      -4.42689615      -0.00268071  F        0        1
O       -2.54259618      -3.04909064       0.41822824  F        0        1
C       -1.38208325      -2.45844417       0.15814542  F        0        1
O       -0.55370320      -3.24289609      -0.52645125  F        0        1
O       -1.11499712      -1.33329507       0.50233154  F        0        1
H       -0.58239034      -5.29652704      -0.70966556  F        0        1
H       -1.48160240      -4.39391783      -1.96224095  F        0        1
H       -3.40588988      -4.66692169      -0.52420988  F        0        1
H       -2.37942956      -5.04883224       0.88728182  F        0        1
C       -2.18150009       3.89111141       1.91608930  F        0        1
C       -1.80494394       2.90117715       3.02018646  F        0        1
O       -1.17199764       1.83665661       2.28570984  F        0        1
C       -0.84539445       2.27510845       1.07412995  F        0        1
O       -1.35176854       3.47521290       0.81234315  F        0        1
O       -0.16752059       1.64754088       0.29606990  F        0        1
H       -3.22365137       3.81341842       1.60463331  F        0        1
H       -1.93885053       4.92396196       2.15760662  F        0        1
H       -1.07589972       3.30382540       3.72356189  F        0        1
H       -2.66115947       2.49096498       3.55105165  F        0        1
C        3.24259430       4.77926216       1.01023769  T        1        2
C        1.72429723       4.91552066       1.10372700  T        1        2
O        1.37163347       3.86751450       2.02361426  T        1        2
C        2.37351648       2.96534103       2.07096653  T        1        2
O        3.46472693       3.42394773       1.43647497  T        1        2
O        2.29354114       1.90059149       2.60473507  T        1        2
H        3.62617048       4.89223333      -0.00206013  T        1        2
H        3.77245943       5.44704411       1.69155342  T        1        2
H        1.39706045       5.86688833       1.51844922  T        1        2
H        1.22184354       4.72201581       0.15466548  T        1        2
41
Properties=species:S:1:pos:R:3:is_solvent:L:1:group_label:I:1:tags:I:1 Coordinates=T from=T ORCA-job=T Li1EC4_r10_charge_1_spin_1_liquid_t_traj_4_frame_0003=T E=T -1378.037695330290=T solvent_indices_0based="_JSON [31, 32, 33, 34, 35, 36, 37, 38, 39, 40]" complex_indices_0based="_JSON [0, 1, 2, 3, 4, 5, 6, 7, 8, 9, 10, 11, 12, 13, 14, 15, 16, 17, 18, 19, 20, 21, 22, 23, 24, 25, 26, 27, 28, 29, 30]" complex_indices_1based="_JSON [1, 2, 3, 4, 5, 6, 7, 8, 9, 10, 11, 12, 13, 14, 15, 16, 17, 18, 19, 20, 21, 22, 23, 24, 25, 26, 27, 28, 29, 30, 31]" pbc="F F F"
Li       0.35232700      -0.16508200       0.60381400  F        0        1
C        4.86080700      -0.10649500       2.72493600  F        0        1
C        5.20451800       0.47720900       1.35197200  F        0        1
O        3.97701900       0.31541300       0.61540900  F        0        1
C        3.14623400      -0.45555300       1.30622600  F        0        1
O        3.65152200      -0.84508300       2.46634800  F        0        1
O        2.05643800      -0.78809700       0.90275900  F        0        1
H        5.60848700      -0.79828400       3.10709000  F        0        1
H        4.62976700       0.65992100       3.46382000  F        0        1
H        5.44154000       1.53840700       1.38188300  F        0        1
H        5.98722900      -0.07584000       0.83173900  F        0        1
C       -1.24289400      -4.45337000      -0.89976400  F        0        1
C       -2.48193200      -4.42689600      -0.00268100  F        0        1
O       -2.54259600      -3.04909100       0.41822800  F        0        1
C       -1.38208300      -2.45844400       0.15814500  F        0        1
O       -0.55370300      -3.24289600      -0.52645100  F        0        1
O       -1.11499700      -1.33329500       0.50233200  F        0        1
H       -0.58239000      -5.29652700      -0.70966600  F        0        1
H       -1.48160200      -4.39391800      -1.96224100  F        0        1
H       -3.40589000      -4.66692200      -0.52421000  F        0        1
H       -2.37943000      -5.04883200       0.88728200  F        0        1
C       -2.18150000       3.89111100       1.91608900  F        0        1
C       -1.80494400       2.90117700       3.02018600  F        0        1
O       -1.17199800       1.83665700       2.28571000  F        0        1
C       -0.84539400       2.27510800       1.07413000  F        0        1
O       -1.35176900       3.47521300       0.81234300  F        0        1
O       -0.16752100       1.64754100       0.29607000  F        0        1
H       -3.22365100       3.81341800       1.60463300  F        0        1
H       -1.93885100       4.92396200       2.15760700  F        0        1
H       -1.07590000       3.30382500       3.72356200  F        0        1
H       -2.66115900       2.49096500       3.55105200  F        0        1
C        3.24259400       4.77926200       1.01023800  T        1        2
C        1.72429700       4.91552100       1.10372700  T        1        2
O        1.37163300       3.86751500       2.02361400  T        1        2
C        2.37351600       2.96534100       2.07096700  T        1        2
O        3.46472700       3.42394800       1.43647500  T        1        2
O        2.29354100       1.90059100       2.60473500  T        1        2
H        3.62617000       4.89223300      -0.00206000  T        1        2
H        3.77245900       5.44704400       1.69155300  T        1        2
H        1.39706000       5.86688800       1.51844900  T        1        2
H        1.22184400       4.72201600       0.15466500  T        1        2
41
Properties=species:S:1:pos:R:3:is_solvent:L:1:group_label:I:1:tags:I:1 Coordinates=T from=T ORCA-job=T Li1EC4_r10_charge_1_spin_1_liquid_t_traj_4_frame_0004=T E=T -1378.039645587336=T solvent_indices_0based="_JSON [31, 32, 33, 34, 35, 36, 37, 38, 39, 40]" complex_indices_0based="_JSON [0, 1, 2, 3, 4, 5, 6, 7, 8, 9, 10, 11, 12, 13, 14, 15, 16, 17, 18, 19, 20, 21, 22, 23, 24, 25, 26, 27, 28, 29, 30]" complex_indices_1based="_JSON [1, 2, 3, 4, 5, 6, 7, 8, 9, 10, 11, 12, 13, 14, 15, 16, 17, 18, 19, 20, 21, 22, 23, 24, 25, 26, 27, 28, 29, 30, 31]" pbc="F F F"
Li       0.10689682      -0.65402847       0.67086722  F        0        1
C        4.65231615       0.63262666       2.57697558  F        0        1
C        4.72160759       0.73545121       1.04985469  F        0        1
O        3.43431116       0.24680698       0.63099139  F        0        1