41
Properties=species:S:1:pos:R:3:is_solvent:L:1:group_label:I:1:tags:I:1 Coordinates=T from=T ORCA-job=T Li1EC4_r07_charge_1_spin_1_liquid_t_traj_4_frame_0000=T E=T -1378.044432414747=T solvent_indices_0based="_JSON [31, 32, 33, 34, 35, 36, 37, 38, 39, 40]" complex_indices_0based="_JSON [0, 1, 2, 3, 4, 5, 6, 7, 8, 9, 10, 11, 12, 13, 14, 15, 16, 17, 18, 19, 20, 21, 22, 23, 24, 25, 26, 27, 28, 29, 30]" complex_indices_1based="_JSON [1, 2, 3, 4, 5, 6, 7, 8, 9, 10, 11, 12, 13, 14, 15, 16, 17, 18, 19, 20, 21, 22, 23, 24, 25, 26, 27, 28, 29, 30, 31]" pbc="F F F"
Li       0.02956439       0.13896448       0.14150248  F        0        1
C        4.18970280       0.97393308       2.17462764  F        0        1
C        3.95340709       2.46776052       2.39699861  F        0        1
O        2.87680481       2.75987755       1.48688430  F        0        1
C        2.30110810       1.61942110       1.10463369  F        0        1
O        2.96851974       0.54951173       1.54165289  F        0        1
O        1.30069808       1.56538469       0.43883746  F        0        1
H        5.01686506       0.76866151       1.49355106  F        0        1
H        4.31395890       0.40924241       3.09624527  F        0        1
H        3.61760046       2.69962420       3.40866876  F        0        1
H        4.80553916       3.09035394       2.13261840  F        0        1
C        1.00443530      -0.78802686      -4.35964400  F        0        1
C        0.60206346      -2.26167590      -4.30183394  F        0        1
O        0.63098128      -2.54603531      -2.89077050  F        0        1
C        0.63750455      -1.39885652      -2.20997375  F        0        1
O        0.76826678      -0.34066294      -3.01188021  F        0        1
O        0.54237042      -1.33163269      -1.01269090  F        0        1
H        2.06107610      -0.64140837      -4.58795029  F        0        1
H        0.38951182      -0.19359649      -5.03211259  F        0        1
H       -0.41064979      -2.44056758      -4.66573026  F        0        1
H        1.30306216      -2.92732715      -4.80100780  F        0        1
C       -2.87615025       3.76827109       0.63004744  F        0        1
C       -3.23427994       3.89386786      -0.85102733  F        0        1
O       -2.84453096       2.61490276      -1.38362243  F        0        1
C       -2.04282739       1.99976400      -0.51336098  F        0        1
O       -1.95645902       2.66134568       0.64271457  F        0        1
O       -1.47148016       0.96690284      -0.74515705  F        0        1
H       -2.36796412       4.64150680       1.03367402  F        0        1
H       -3.73203404       3.50960866       1.25521922  F        0        1
H       -4.29764244       4.03292084      -1.03438478  F        0        1
H       -2.66059634       4.66736294      -1.36356123  F        0        1
C       -1.36947135      -3.60025909       3.28195554  T        1        2
C       -1.87190250      -3.69495545       1.84210686  T        1        2
O       -1.61595300      -2.37410712       1.33184526  T        1        2
C       -0.73885159      -1.75850244       2.12851546  T        1        2
O       -0.49180141      -2.45939010       3.23567803  T        1        2
O       -0.23349636      -0.69477338       1.88254407  T        1        2
H       -2.16389416      -3.39136639       4.00000982  T        1        2
H       -0.79221014      -4.46482678       3.60261748  T        1        2
H       -1.30641141      -4.40919890       1.24157955  T        1        2
H       -2.93803972      -3.89537994       1.76036911  T        1        2
41
Properties=species:S:1:pos:R:3:is_solvent:L:1:group_label:I:1:tags:I:1 Coordinates=T from=T ORCA-job=T Li1EC4_r07_charge_1_spin_1_liquid_t_traj_4_frame_0000=T E=T -1378.044432414747=T solvent_indices_0based="_JSON [31, 32, 33, 34, 35, 36, 37, 38, 39, 40]" complex_indices_0based="_JSON [0, 1, 2, 3, 4, 5, 6, 7, 8, 9, 10, 11, 12, 13, 14, 15, 16, 17, 18, 19, 20, 21, 22, 23, 24, 25, 26, 27, 28, 29, 30]" complex_indices_1based="_JSON [1, 2, 3, 4, 5, 6, 7, 8, 9, 10, 11, 12, 13, 14, 15, 16, 17, 18, 19, 20, 21, 22, 23, 24, 25, 26, 27, 28, 29, 30, 31]" pbc="F F F"
Li       0.02956400       0.13896400       0.14150200  F        0        1
C        4.18970300       0.97393300       2.17462800  F        0        1
C        3.95340700       2.46776100       2.39699900  F        0        1
O        2.87680500       2.75987800       1.48688400  F        0        1
C        2.30110800       1.61942100       1.10463400  F        0        1
O        2.96852000       0.54951200       1.54165300  F        0        1
O        1.30069800       1.56538500       0.43883700  F        0        1
H        5.01686500       0.76866200       1.49355100  F        0        1
H        4.31395900       0.40924200       3.09624500  F        0        1
H        3.61760000       2.69962400       3.40866900  F        0        1
H        4.80553900       3.09035400       2.13261800  F        0        1
C        1.00443500      -0.78802700      -4.35964400  F        0        1
C        0.60206300      -2.26167600      -4.30183400  F        0        1
O        0.63098100      -2.54603500      -2.89077100  F        0        1
C        0.63750500      -1.39885700      -2.20997400  F        0        1
O        0.76826700      -0.34066300      -3.01188000  F        0        1
O        0.54237000      -1.33163300      -1.01269100  F        0        1
H        2.06107600      -0.64140800      -4.58795000  F        0        1
H        0.38951200      -0.19359600      -5.03211300  F        0        1
H       -0.41065000      -2.44056800      -4.66573000  F        0        1
H        1.30306200      -2.92732700      -4.80100800  F        0        1
C       -2.87615000       3.76827100       0.63004700  F        0        1
C       -3.23428000       3.89386800      -0.85102700  F        0        1
O       -2.84453100       2.61490300      -1.38362200  F        0        1
C       -2.04282700       1.99976400      -0.51336100  F        0        1
O       -1.95645900       2.66134600       0.64271500  F        0        1
O       -1.47148000       0.96690300      -0.74515700  F        0        1
H       -2.36796400       4.64150700       1.03367400  F        0        1
H       -3.73203400       3.50960900       1.25521900  F        0        1
H       -4.29764200       4.03292100      -1.03438500  F        0        1
H       -2.66059600       4.66736300      -1.36356100  F        0        1
C       -1.36947100      -3.60025900       3.28195600  T        1        2
C       -1.87190200      -3.69495500       1.84210700  T        1        2
O       -1.61595300      -2.37410700       1.33184500  T        1        2
C       -0.73885200      -1.75850200       2.12851500  T        1        2
O       -0.49180100      -2.45939000       3.23567800  T        1        2
O       -0.23349600      -0.69477300       1.88254400  T        1        2
H       -2.16389400      -3.39136600       4.00001000  T        1        2
H       -0.79221000      -4.46482700       3.60261700  T        1        2
H       -1.30641100      -4.40919900       1.24158000  T        1        2
H       -2.93804000      -3.89538000       1.76036900  T        1        2
41
Properties=species:S:1:pos:R:3:is_solvent:L:1:group_label:I:1:tags:I:1 Coordinates=T from=T ORCA-job=T Li1EC4_r07_charge_1_spin_1_liquid_t_traj_4_frame_0001=T E=T -1378.038275685429=T solvent_indices_0based="_JSON [31, 32, 33, 34, 35, 36, 37, 38, 39, 40]" complex_indices_0based="_JSON [0, 1, 2, 3, 4, 5, 6, 7, 8, 9, 10, 11, 12, 13, 14, 15, 16, 17, 18, 19, 20, 21, 22, 23, 24, 25, 26, 27, 28, 29, 30]" complex_indices_1based="_JSON [1, 2, 3, 4, 5, 6, 7, 8, 9, 10, 11, 12, 13, 14, 15, 16, 17, 18, 19, 20, 21, 22, 23, 24, 25, 26, 27, 28, 29, 30, 31]" pbc="F F F"
Li       0.46397368       0.34858820      -0.40353516  F        0        1
C        4.40772477       0.98697477       1.99349029  F        0        1
C        4.10602487       2.43092565       2.40299066  F        0        1
O        3.06259397       2.81516677       1.48858193  F        0        1
C        2.57104839       1.73009029       0.89628446  F        0        1
O        3.26013680       0.63108436       1.20100897  F        0        1
O        1.61445768       1.74392180       0.16436591  F        0        1
H        5.29607493       0.89686949       1.36706408  F        0        1
H        4.47144434       0.29821320       2.83337874  F        0        1
H        3.71632142       2.51490146       3.41817500  F        0        1
H        4.94735411       3.10773065       2.26868163  F        0        1
C        1.75426340      -1.07105358      -4.82404248  F        0        1
C        1.61906051      -2.56259144      -4.51097642  F        0        1
O        1.55073704      -2.58390684      -3.07260298  F        0        1
C        1.30098534      -1.35660430      -2.62354018  F        0        1
O        1.32353759      -0.44743829      -3.59911270  F        0        1
O        1.08183080      -1.09950431      -1.46855560  F        0        1
H        2.78348511      -0.76631038      -5.01798387  F        0        1
H        1.10599524      -0.73149262      -5.62910858  F        0        1
H        0.69956920      -3.00025836      -4.90179368  F        0        1
H        2.47696271      -3.15443946      -4.82312900  F        0        1
C       -3.02084295       2.63744622       1.45557006  F        0        1
C       -4.13464509       2.21297569       0.49970785  F        0        1
O       -3.49462632       1.20049896      -0.29997055  F        0        1
C       -2.17419418       1.30410299      -0.15649546  F        0        1
O       -1.83596409       2.20121429       0.76709960  F        0        1
O       -1.38021871       0.66307091      -0.79724968  F        0        1
H       -2.95618841       3.71271908       1.60712436  F        0        1
H       -3.06400063       2.12036218       2.41528387  F        0        1
H       -4.99415254       1.76841769       0.99718810  F        0        1
H       -4.45998659       3.01682528      -0.16233429  F        0        1
C       -2.21801828      -2.79175234       3.09602358  T        1        2
C       -3.10418104      -1.84716444       2.28680097  T        1        2
O       -2.21341175      -0.75652001       1.99352046  T        1        2
C       -0.93910605      -1.17287523       2.15337770  T        1        2
O       -0.89379021      -2.38496669       2.71478368  T        1        2
O        0.02071893      -0.53360841       1.83678088  T        1        2
H       -2.32401520      -2.65499844       4.17369730  T        1        2
H       -2.34573324      -3.84103732       2.83829952  T        1        2
H       -3.43947003      -2.28113699       1.34310495  T        1        2
H       -3.95528551      -1.46251518       2.84559875  T        1        2
41
Properties=species:S:1:pos:R:3:is_solvent:L:1:group_label:I:1:tags:I:1 Coordinates=T from=T ORCA-job=T Li1EC4_r07_charge_1_spin_1_liquid_t_traj_4_frame_0001=T E=T -1378.038275685429=T solvent_indices_0based="_JSON [31, 32, 33, 34, 35, 36, 37, 38, 39, 40]" complex_indices_0based="_JSON [0, 1, 2, 3, 4, 5, 6, 7, 8, 9, 10, 11, 12, 13, 14, 15, 16, 17, 18, 19, 20, 21, 22, 23, 24, 25, 26, 27, 28, 29, 30]" complex_indices_1based="_JSON [1, 2, 3, 4, 5, 6, 7, 8, 9, 10, 11, 12, 13, 14, 15, 16, 17, 18, 19, 20, 21, 22, 23, 24, 25, 26, 27, 28, 29, 30, 31]" pbc="F F F"
Li       0.46397400       0.34858800      -0.40353500  F        0        1
C        4.40772500       0.98697500       1.99349000  F        0        1
C        4.10602500       2.43092600       2.40299100  F        0        1
O        3.06259400       2.81516700       1.48858200  F        0        1
C        2.57104800       1.73009000       0.89628400  F        0        1
O        3.26013700       0.63108400       1.20100900  F        0        1
O        1.61445800       1.74392200       0.16436600  F        0        1
H        5.29607500       0.89686900       1.36706400  F        0        1
H        4.47144400       0.29821300       2.83337900  F        0        1
H        3.71632100       2.51490100       3.41817500  F        0        1
H        4.94735400       3.10773100       2.26868200  F        0        1
C        1.75426300      -1.07105400      -4.82404200  F        0        1
C        1.61906100      -2.56259100      -4.51097600  F        0        1
O        1.55073700      -2.58390700      -3.07260300  F        0        1
C        1.30098500      -1.35660400      -2.62354000  F        0        1
O        1.32353800      -0.44743800      -3.59911300  F        0        1
O        1.08183100      -1.09950400      -1.46855600  F        0        1
H        2.78348500      -0.76631000      -5.01798400  F        0        1
H        1.10599500      -0.73149300      -5.62910900  F        0        1
H        0.69956900      -3.00025800      -4.90179400  F        0        1
H        2.47696300      -3.15443900      -4.82312900  F        0        1
C       -3.02084300       2.63744600       1.45557000  F        0        1
C       -4.13464500       2.21297600       0.49970800  F        0        1
O       -3.49462600       1.20049900      -0.29997100  F        0        1
C       -2.17419400       1.30410300      -0.15649500  F        0        1
O       -1.83596400       2.20121400       0.76710000  F        0        1
O       -1.38021900       0.66307100      -0.79725000  F        0        1
H       -2.95618800       3.71271900       1.60712400  F        0        1
H       -3.06400100       2.12036200       2.41528400  F        0        1
H       -4.99415300       1.76841800       0.99718800  F        0        1
H       -4.45998700       3.01682500      -0.16233400  F        0        1
C       -2.21801800      -2.79175200       3.09602400  T        1        2
C       -3.10418100      -1.84716400       2.28680100  T        1        2
O       -2.21341200      -0.75652000       1.99352000  T        1        2
C       -0.93910600      -1.17287500       2.15337800  T        1        2
O       -0.89379000      -2.38496700       2.71478400  T        1        2
O        0.02071900      -0.53360800       1.83678100  T        1        2
H       -2.32401500      -2.65499800       4.17369700  T        1        2
H       -2.34573300      -3.84103700       2.83830000  T        1        2
H       -3.43947000      -2.28113700       1.34310500  T        1        2
H       -3.95528600      -1.46251500       2.84559900  T        1        2
41
Properties=species:S:1:pos:R:3:is_solvent:L:1:group_label:I:1:tags:I:1 Coordinates=T from=T ORCA-job=T Li1EC4_r07_charge_1_spin_1_liquid_t_traj_4_frame_0002=T E=T -1378.034539872200=T solvent_indices_0based="_JSON [31, 32, 33, 34, 35, 36, 37, 38, 39, 40]" complex_indices_0based="_JSON [0, 1, 2, 3, 4, 5, 6, 7, 8, 9, 10, 11, 12, 13, 14, 15, 16, 17, 18, 19, 20, 21, 22, 23, 24, 25, 26, 27, 28, 29, 30]" complex_indices_1based="_JSON [1, 2, 3, 4, 5, 6, 7, 8, 9, 10, 11, 12, 13, 14, 15, 16, 17, 18, 19, 20, 21, 22, 23, 24, 25, 26, 27, 28, 29, 30, 31]" pbc="F F F"
Li       0.37057047       0.39887413      -0.97865616  F        0        1
C        3.67261712       0.35155222       2.17555915  F        0        1
C        2.88694497       1.37195264       3.00629210  F        0        1
O        2.10343013       2.06688896       2.01975159  F        0        1
C        2.13600204       1.39178239       0.87679657  F        0        1
O        3.01798213       0.39745460       0.89652598  F        0        1
O        1.45198052       1.65816521      -0.08161828  F        0        1
H        4.71842429       0.62476580       2.03284435  F        0        1
H        3.59692891      -0.66340528       2.56085937  F        0        1
H        2.20078809       0.90034468       3.70966591  F        0        1
H        3.51673258       2.09790469       3.51688218  F        0        1
C        2.06286979      -0.83967254      -5.44180661  F        0        1
C        2.16218652      -2.31930182      -5.06557029  F        0        1
O        1.96908216      -2.30084547      -3.63760237  F        0        1
C        1.46942103      -1.12349763      -3.27567980  F        0        1
O        1.41963810      -0.26045686      -4.28946325  F        0        1
O        1.10440520      -0.86841969      -2.15706748  F        0        1
H        3.03528175      -0.36138587      -5.56458797  F        0        1
H        1.43975795      -0.65205303      -6.31365015  F        0        1
H        1.37096639      -2.92620094      -5.50738359  F        0        1
H        3.13421750      -2.76095990      -5.27415945  F        0        1
C       -3.07378339       2.35648130       1.47773953  F        0        1
C       -4.23022340       1.91191422       0.58168633  F        0        1
O       -3.60289975       0.95948197      -0.29634626  F        0        1
C       -2.28190787       1.10476768      -0.22830139  F        0        1
O       -1.91671204       1.96852332       0.71862960  F        0        1
O       -1.50984822       0.52605197      -0.94860132  F        0        1
H       -3.03459381       3.43111389       1.64278576  F        0        1
H       -3.04769058       1.82874281       2.43246107  F        0        1
H       -5.03390012       1.40992153       1.11651077  F        0        1
H       -4.63528732       2.72214969      -0.02604328  F        0        1
C       -1.73145341      -1.69502816       4.31261176  T        1        2
C       -2.61858659      -1.78397088       3.07223200  T        1        2
O       -1.88267217      -1.01604285       2.10252392  T        1        2
C       -0.60145370      -0.91474652       2.50346507  T        1        2
O       -0.44701302      -1.36717180       3.75804367  T        1        2
O        0.28367303      -0.46487900       1.83885287  T        1        2
H       -2.02896116      -0.89462425       4.99284252  T        1        2
H       -1.64661714      -2.63305224       4.85740318  T        1        2
H       -2.72318899      -2.80317218       2.69680951  T        1        2
H       -3.60056231      -1.33273563       3.20147913  T        1        2
41
Properties=species:S:1:pos:R:3:is_solvent:L:1:group_label:I:1:tags:I:1 Coordinates=T from=T ORCA-job=T Li1EC4_r07_charge_1_spin_1_liquid_t_traj_4_frame_0002=T E=T -1378.034539872200=T solvent_indices_0based="_JSON [31, 32, 33, 34, 35, 36, 37, 38, 39, 40]" complex_indices_0based="_JSON [0, 1, 2, 3, 4, 5, 6, 7, 8, 9, 10, 11, 12, 13, 14, 15, 16, 17, 18, 19, 20, 21, 22, 23, 24, 25, 26, 27, 28, 29, 30]" complex_indices_1based="_JSON [1, 2, 3, 4, 5, 6, 7, 8, 9, 10, 11, 12, 13, 14, 15, 16, 17, 18, 19, 20, 21, 22, 23, 24, 25, 26, 27, 28, 29, 30, 31]" pbc="F F F"
Li       0.37057000       0.39887400      -0.97865600  F        0        1
C        3.67261700       0.35155200       2.17555900  F        0        1
C        2.88694500       1.37195300       3.00629200  F        0        1
O        2.10343000       2.06688900       2.01975200  F        0        1
C        2.13600200       1.39178200       0.87679700  F        0        1
O        3.01798200       0.39745500       0.89652600  F        0        1
O        1.45198100       1.65816500      -0.08161800  F        0        1
H        4.71842400       0.62476600       2.03284400  F        0        1
H        3.59692900      -0.66340500       2.56085900  F        0        1
H        2.20078800       0.90034500       3.70966600  F        0        1
H        3.51673300       2.09790500       3.51688200  F        0        1
C        2.06287000      -0.83967300      -5.44180700  F        0        1
C        2.16218700      -2.31930200      -5.06557000  F        0        1
O        1.96908200      -2.30084500      -3.63760200  F        0        1
C        1.46942100      -1.12349800      -3.27568000  F        0        1
O        1.41963800      -0.26045700      -4.28946300  F        0        1
O        1.10440500      -0.86842000      -2.15706700  F        0        1
H        3.03528200      -0.36138600      -5.56458800  F        0        1
H        1.43975800      -0.65205300      -6.31365000  F        0        1
H        1.37096600      -2.92620100      -5.50738400  F        0        1
H        3.13421700      -2.76096000      -5.27415900  F        0        1
C       -3.07378300       2.35648100       1.47774000  F        0        1
C       -4.23022300       1.91191400       0.58168600  F        0        1
O       -3.60290000       0.95948200      -0.29634600  F        0        1
C       -2.28190800       1.10476800      -0.22830100  F        0        1
O       -1.91671200       1.96852300       0.71863000  F        0        1
O       -1.50984800       0.52605200      -0.94860100  F        0        1
H       -3.03459400       3.43111400       1.64278600  F        0        1
H       -3.04769100       1.82874300       2.43246100  F        0        1
H       -5.03390000       1.40992200       1.11651100  F        0        1
H       -4.63528700       2.72215000      -0.02604300  F        0        1
C       -1.73145300      -1.69502800       4.31261200  T        1        2
C       -2.61858700      -1.78397100       3.07223200  T        1        2
O       -1.88267200      -1.01604300       2.10252400  T        1        2
C       -0.60145400      -0.91474700       2.50346500  T        1        2
O       -0.44701300      -1.36717200       3.75804400  T        1        2
O        0.28367300      -0.46487900       1.83885300  T        1        2
H       -2.02896100      -0.89462400       4.99284300  T        1        2
H       -1.64661700      -2.63305200       4.85740300  T        1        2
H       -2.72318900      -2.80317200       2.69681000  T        1        2
H       -3.60056200      -1.33273600       3.20147900  T        1        2
41
Properties=species:S:1:pos:R:3:is_solvent:L:1:group_label:I:1:tags:I:1 Coordinates=T from=T ORCA-job=T Li1EC4_r07_charge_1_spin_1_liquid_t_traj_4_frame_0003=T E=T -1378.036608854200=T solvent_indices_0based="_JSON [31, 32, 33, 34, 35, 36, 37, 38, 39, 40]" complex_indices_0based="_JSON [0, 1, 2, 3, 4, 5, 6, 7, 8, 9, 10, 11, 12, 13, 14, 15, 16, 17, 18, 19, 20, 21, 22, 23, 24, 25, 26, 27, 28, 29, 30]" complex_indices_1based="_JSON [1, 2, 3, 4, 5, 6, 7, 8, 9, 10, 11, 12, 13, 14, 15, 16, 17, 18, 19, 20, 21, 22, 23, 24, 25, 26, 27, 28, 29, 30, 31]" pbc="F F F"
Li       0.79269266      -0.14470791      -1.12375515  F        0        1
C        2.69904651      -1.22373370       2.78099920  F        0        1
C        2.95308718       0.17892291       3.33955636  F        0        1
O        2.41919252       1.03878834       2.31545152  F        0        1
C        2.17120549       0.32551981       1.22482722  F        0        1
O        2.43466008      -0.96961286       1.39105947  F        0        1
O        1.77443536       0.79508919       0.18666525  F        0        1
H        3.55959667      -1.88571623       2.85206552  F        0        1
H        1.81618453      -1.69374543       3.21347851  F        0        1
H        2.41444725       0.37457371       4.26444371  F        0        1
H        4.01153348       0.41172022       3.46095265  F        0        1
C        1.92124298       0.28404149      -5.87202411  F        0        1
C        2.50993510      -1.12640707      -5.93429749  F        0        1
O        2.60674278      -1.49344260      -4.54384780  F        0        1
C        1.87075451      -0.66072076      -3.81648068  F        0        1
O        1.37191055       0.34064248      -4.54003837  F        0        1
O        1.68096766      -0.79636029      -2.63452139  F        0        1
H        2.67534795       1.06678499      -5.96207805  F        0        1
H        1.11568440       0.45379924      -6.58310638  F        0        1
H        1.85392685      -1.84314716      -6.42975024  F        0        1
H        3.50613045      -1.16658966      -6.36936087  F        0        1
C       -3.38102800       1.65271962       0.45957319  F        0        1
C       -4.08361707       0.29166939       0.43590243  F        0        1
O       -3.04821084      -0.60365440      -0.00367157  F        0        1
C       -2.01138081       0.09657492      -0.44807898  F        0        1
O       -2.16839475       1.40585632      -0.27230456  F        0        1
O       -1.05027208      -0.40049318      -0.97834299  F        0        1
H       -3.93916526       2.43278098      -0.05470009  F        0        1
H       -3.11050278       1.97363100       1.46453366  F        0        1
H       -4.42249040      -0.03525052       1.41594167  F        0        1
H       -4.90219110       0.24407634      -0.28305400  F        0        1
C       -1.44428253      -0.21169210       5.37428433  T        1        2
C       -2.76630171      -0.20766443       4.60254699  T        1        2
O       -2.34201882      -0.03495732       3.23878021  T        1        2
C       -1.01678125      -0.23892876       3.13615738  T        1        2
O       -0.46509690      -0.43975275       4.34599457  T        1        2
O       -0.41489922      -0.23591951       2.10480429  T        1        2
H       -1.22689686       0.74623067       5.84885344  T        1        2
H       -1.37176676      -1.01480585       6.10506247  T        1        2
H       -3.30593379      -1.15281571       4.67667705  T        1        2
H       -3.42087270       0.61919376       4.87268157  T        1        2
41
Properties=species:S:1:pos:R:3:is_solvent:L:1:group_label:I:1:tags:I:1 Coordinates=T from=T ORCA-job=T Li1EC4_r07_charge_1_spin_1_liquid_t_traj_4_frame_0003=T E=T -1378.036608854200=T solvent_indices_0based="_JSON [31, 32, 33, 34, 35, 36, 37, 38, 39, 40]" complex_indices_0based="_JSON [0, 1, 2, 3, 4, 5, 6, 7, 8, 9, 10, 11, 12, 13, 14, 15, 16, 17, 18, 19, 20, 21, 22, 23, 24, 25, 26, 27, 28, 29, 30]" complex_indices_1based="_JSON [1, 2, 3, 4, 5, 6, 7, 8, 9, 10, 11, 12, 13, 14, 15, 16, 17, 18, 19, 20, 21, 22, 23, 24, 25, 26, 27, 28, 29, 30, 31]" pbc="F F F"
Li       0.79269300      -0.14470800      -1.12375500  F        0        1
C        2.69904700      -1.22373400       2.78099900  F        0        1
C        2.95308700       0.17892300       3.33955600  F        0        1
O        2.41919300       1.03878800       2.31545200  F        0        1
C        2.17120500       0.32552000       1.22482700  F        0        1
O        2.43466000      -0.96961300       1.39105900  F        0        1
O        1.77443500       0.79508900       0.18666500  F        0        1
H        3.55959700      -1.88571600       2.85206600  F        0        1
H        1.81618500      -1.69374500       3.21347900  F        0        1
H        2.41444700       0.37457400       4.26444400  F        0        1
H        4.01153300       0.41172000       3.46095300  F        0        1
C        1.92124300       0.28404100      -5.87202400  F        0        1
C        2.50993500      -1.12640700      -5.93429700  F        0        1
O        2.60674300      -1.49344300      -4.54384800  F        0        1
C        1.87075500      -0.66072100      -3.81648100  F        0        1
O        1.37191100       0.34064200      -4.54003800  F        0        1
O        1.68096800      -0.79636000      -2.63452100  F        0        1
H        2.67534800       1.06678500      -5.96207800  F        0        1
H        1.11568400       0.45379900      -6.58310600  F        0        1
H        1.85392700      -1.84314700      -6.42975000  F        0        1
H        3.50613000      -1.16659000      -6.36936100  F        0        1
C       -3.38102800       1.65272000       0.45957300  F        0        1
C       -4.08361700       0.29166900       0.43590200  F        0        1
O       -3.04821100      -0.60365400      -0.00367200  F        0        1
C       -2.01138100       0.09657500      -0.44807900  F        0        1
O       -2.16839500       1.40585600      -0.27230500  F        0        1
O       -1.05027200      -0.40049300      -0.97834300  F        0        1
H       -3.93916500       2.43278100      -0.05470000  F        0        1
H       -3.11050300       1.97363100       1.46453400  F        0        1
H       -4.42249000      -0.03525100       1.41594200  F        0        1
H       -4.90219100       0.24407600      -0.28305400  F        0        1
C       -1.44428300      -0.21169200       5.37428400  T        1        2
C       -2.76630200      -0.20766400       4.60254700  T        1        2
O       -2.34201900      -0.03495700       3.23878000  T        1        2
C       -1.01678100      -0.23892900       3.13615700  T        1        2
O       -0.46509700      -0.43975300       4.34599500  T        1        2
O       -0.41489900      -0.23592000       2.10480400  T        1        2
H       -1.22689700       0.74623100       5.84885300  T        1        2
H       -1.37176700      -1.01480600       6.10506200  T        1        2
H       -3.30593400      -1.15281600       4.67667700  T        1        2
H       -3.42087300       0.61919400       4.87268200  T        1        2
41
Properties=species:S:1:pos:R:3:is_solvent:L:1:group_label:I:1:tags:I:1 Coordinates=T from=T ORCA-job=T Li1EC4_r07_charge_1_spin_1_liquid_t_traj_4_frame_0004=T E=T -1378.038701233718=T solvent_indices_0based="_JSON [31, 32, 33, 34, 35, 36, 37, 38, 39, 40]" complex_indices_0based="_JSON [0, 1, 2, 3, 4, 5, 6, 7, 8, 9, 10, 11, 12, 13, 14, 15, 16, 17, 18, 19, 20, 21, 22, 23, 24, 25, 26, 27, 28, 29, 30]" complex_indices_1based="_JSON [1, 2, 3, 4, 5, 6, 7, 8, 9, 10, 11, 12, 13, 14, 15, 16, 17, 18, 19, 20, 21, 22, 23, 24, 25, 26, 27, 28, 29, 30, 31]" pbc="F F F"
Li       0.95331651      -0.40311064      -1.16909774  F        0        1
C        2.15470599      -1.72507522       2.95115548  F        0        1
C        2.61607294      -0.38714699       3.53255736  F        0        1
O        2.26375539       0.55396305       2.50043738  F        0        1