41
Properties=species:S:1:pos:R:3:is_solvent:L:1:group_label:I:1:tags:I:1 Coordinates=T from=T ORCA-job=T Li1EC4_r05_charge_1_spin_1_liquid_t_traj_4_frame_0000=T E=T -1378.044172511954=T solvent_indices_0based="_JSON [31, 32, 33, 34, 35, 36, 37, 38, 39, 40]" complex_indices_0based="_JSON [0, 1, 2, 3, 4, 5, 6, 7, 8, 9, 10, 11, 12, 13, 14, 15, 16, 17, 18, 19, 20, 21, 22, 23, 24, 25, 26, 27, 28, 29, 30]" complex_indices_1based="_JSON [1, 2, 3, 4, 5, 6, 7, 8, 9, 10, 11, 12, 13, 14, 15, 16, 17, 18, 19, 20, 21, 22, 23, 24, 25, 26, 27, 28, 29, 30, 31]" pbc="F F F"
Li      -0.27642890      -0.46199136       0.86325143  F        0        1
C        4.18897293       0.16156372      -0.03830898  F        0        1
C        4.20704138       1.68774218      -0.12527624  F        0        1
O        2.81190701       2.02842268      -0.02033740  F        0        1
C        2.13569557       0.97798411       0.44465755  F        0        1
O        2.90530146      -0.10562883       0.55540912  F        0        1
O        0.96768365       1.01006163       0.73411936  F        0        1
H        4.21950322      -0.32190528      -1.01581966  F        0        1
H        4.96033780      -0.24984616       0.60921697  F        0        1
H        4.73679572       2.15665995       0.70523294  F        0        1
H        4.58367720       2.06786629      -1.07251812  F        0        1
C       -1.52926198      -4.53650875      -1.12501184  F        0        1
C       -0.80431437      -4.33411292      -2.45579905  F        0        1
O        0.08366638      -3.23777900      -2.17131238  F        0        1
C       -0.30900538      -2.63067259      -1.05069686  F        0        1
O       -1.30192987      -3.28772738      -0.44602321  F        0        1
O        0.17839445      -1.61265290      -0.63681621  F        0        1
H       -2.60249023      -4.68143796      -1.22950131  F        0        1
H       -1.09791731      -5.33687229      -0.52196700  F        0        1
H       -0.20723854      -5.18989031      -2.76375016  F        0        1
H       -1.47266587      -4.03201738      -3.26340554  F        0        1
C       -2.81582518       3.43974034       1.41451093  F        0        1
C       -4.05334637       2.99615246       0.63523715  F        0        1
O       -3.64341322       1.73207539       0.08270775  F        0        1
C       -2.55647165       1.30133824       0.72483672  F        0        1
O       -2.09494231       2.20650137       1.59073584  F        0        1
O       -2.05782069       0.22240832       0.54245934  F        0        1
H       -2.18225523       4.12834313       0.85345170  F        0        1
H       -3.03993830       3.85188130       2.39613503  F        0        1
H       -4.92155163       2.82525611       1.27368465  F        0        1
H       -4.31711429       3.66103642      -0.18451592  F        0        1
C       -1.92099689      -0.76196183       5.36680113  T        1        2
C       -1.25108018      -2.09212146       5.70849765  T        1        2
O       -0.32351210      -2.26753899       4.62306133  T        1        2
C       -0.65678192      -1.45381980       3.61999809  T        1        2
O       -1.64558465      -0.61959480       3.96108125  T        1        2
O       -0.12799681      -1.47223255       2.54186544  T        1        2
H       -2.99975026      -0.76542235       5.50893611  T        1        2
H       -1.47594462       0.08549587       5.89071317  T        1        2
H       -0.69143047      -2.07405931       6.64132212  T        1        2
H       -1.94641068      -2.93296908       5.70476146  T        1        2
41
Properties=species:S:1:pos:R:3:is_solvent:L:1:group_label:I:1:tags:I:1 Coordinates=T from=T ORCA-job=T Li1EC4_r05_charge_1_spin_1_liquid_t_traj_4_frame_0000=T E=T -1378.044172511954=T solvent_indices_0based="_JSON [31, 32, 33, 34, 35, 36, 37, 38, 39, 40]" complex_indices_0based="_JSON [0, 1, 2, 3, 4, 5, 6, 7, 8, 9, 10, 11, 12, 13, 14, 15, 16, 17, 18, 19, 20, 21, 22, 23, 24, 25, 26, 27, 28, 29, 30]" complex_indices_1based="_JSON [1, 2, 3, 4, 5, 6, 7, 8, 9, 10, 11, 12, 13, 14, 15, 16, 17, 18, 19, 20, 21, 22, 23, 24, 25, 26, 27, 28, 29, 30, 31]" pbc="F F F"
Li      -0.27642900      -0.46199100       0.86325100  F        0        1
C        4.18897300       0.16156400      -0.03830900  F        0        1
C        4.20704100       1.68774200      -0.12527600  F        0        1
O        2.81190700       2.02842300      -0.02033700  F        0        1
C        2.13569600       0.97798400       0.44465800  F        0        1
O        2.90530100      -0.10562900       0.55540900  F        0        1
O        0.96768400       1.01006200       0.73411900  F        0        1
H        4.21950300      -0.32190500      -1.01582000  F        0        1
H        4.96033800      -0.24984600       0.60921700  F        0        1
H        4.73679600       2.15666000       0.70523300  F        0        1
H        4.58367700       2.06786600      -1.07251800  F        0        1
C       -1.52926200      -4.53650900      -1.12501200  F        0        1
C       -0.80431400      -4.33411300      -2.45579900  F        0        1
O        0.08366600      -3.23777900      -2.17131200  F        0        1
C       -0.30900500      -2.63067300      -1.05069700  F        0        1
O       -1.30193000      -3.28772700      -0.44602300  F        0        1
O        0.17839400      -1.61265300      -0.63681600  F        0        1
H       -2.60249000      -4.68143800      -1.22950100  F        0        1
H       -1.09791700      -5.33687200      -0.52196700  F        0        1
H       -0.20723900      -5.18989000      -2.76375000  F        0        1
H       -1.47266600      -4.03201700      -3.26340600  F        0        1
C       -2.81582500       3.43974000       1.41451100  F        0        1
C       -4.05334600       2.99615200       0.63523700  F        0        1
O       -3.64341300       1.73207500       0.08270800  F        0        1
C       -2.55647200       1.30133800       0.72483700  F        0        1
O       -2.09494200       2.20650100       1.59073600  F        0        1
O       -2.05782100       0.22240800       0.54245900  F        0        1
H       -2.18225500       4.12834300       0.85345200  F        0        1
H       -3.03993800       3.85188100       2.39613500  F        0        1
H       -4.92155200       2.82525600       1.27368500  F        0        1
H       -4.31711400       3.66103600      -0.18451600  F        0        1
C       -1.92099700      -0.76196200       5.36680100  T        1        2
C       -1.25108000      -2.09212100       5.70849800  T        1        2
O       -0.32351200      -2.26753900       4.62306100  T        1        2
C       -0.65678200      -1.45382000       3.61999800  T        1        2
O       -1.64558500      -0.61959500       3.96108100  T        1        2
O       -0.12799700      -1.47223300       2.54186500  T        1        2
H       -2.99975000      -0.76542200       5.50893600  T        1        2
H       -1.47594500       0.08549600       5.89071300  T        1        2
H       -0.69143000      -2.07405900       6.64132200  T        1        2
H       -1.94641100      -2.93296900       5.70476100  T        1        2
41
Properties=species:S:1:pos:R:3:is_solvent:L:1:group_label:I:1:tags:I:1 Coordinates=T from=T ORCA-job=T Li1EC4_r05_charge_1_spin_1_liquid_t_traj_4_frame_0001=T E=T -1378.039383144868=T solvent_indices_0based="_JSON [31, 32, 33, 34, 35, 36, 37, 38, 39, 40]" complex_indices_0based="_JSON [0, 1, 2, 3, 4, 5, 6, 7, 8, 9, 10, 11, 12, 13, 14, 15, 16, 17, 18, 19, 20, 21, 22, 23, 24, 25, 26, 27, 28, 29, 30]" complex_indices_1based="_JSON [1, 2, 3, 4, 5, 6, 7, 8, 9, 10, 11, 12, 13, 14, 15, 16, 17, 18, 19, 20, 21, 22, 23, 24, 25, 26, 27, 28, 29, 30, 31]" pbc="F F F"
Li      -0.36101512       0.17660694       0.94049378  F        0        1
C        4.16188255      -0.03730724       0.14750282  F        0        1
C        4.49030602       1.43941634       0.36603361  F        0        1
O        3.19111270       2.02324071       0.58508614  F        0        1
C        2.31738891       1.05884367       0.85935903  F        0        1
O        2.84865190      -0.15686840       0.72745351  F        0        1
O        1.17766626       1.26317675       1.19438555  F        0        1
H        4.09316838      -0.30821381      -0.90696115  F        0        1
H        4.83155121      -0.71780498       0.66887120  F        0        1
H        5.09675406       1.61599423       1.25545771  F        0        1
H        4.94139046       1.92134485      -0.49857426  F        0        1
C       -1.70218091      -3.82887883      -0.58668460  F        0        1
C       -0.39721175      -4.11855889      -1.32585003  F        0        1
O        0.31334346      -2.87071330      -1.21001831  F        0        1
C       -0.53502609      -1.91639742      -0.83690807  F        0        1
O       -1.75845291      -2.39038997      -0.60820270  F        0        1
O       -0.23207285      -0.75374887      -0.72942403  F        0        1
H       -2.58677975      -4.21578336      -1.08773889  F        0        1
H       -1.67730927      -4.14762090       0.45615077  F        0        1
H        0.20331865      -4.89855012      -0.86282140  F        0        1
H       -0.54296361      -4.33186288      -2.38587384  F        0        1
C       -3.57788486       3.31827275      -0.14395804  F        0        1
C       -4.43251173       3.19750854       1.11897834  F        0        1
O       -3.92029469       2.00115991       1.73929893  F        0        1
C       -2.75195072       1.68470914       1.18827304  F        0        1
O       -2.45476707       2.46468107       0.14908976  F        0        1
O       -2.04373284       0.79378760       1.58475450  F        0        1
H       -4.07582691       2.93197553      -1.03420164  F        0        1
H       -3.20534332       4.32358935      -0.32813514  F        0        1
H       -4.29159042       4.02635869       1.81363613  F        0        1
H       -5.49158518       3.05232965       0.91710140  F        0        1
C       -0.76345111      -1.59529940       5.39060172  T        1        2
C       -1.42013673      -2.95242664       5.13477200  T        1        2
O       -1.04025236      -3.24180627       3.77713587  T        1        2
C       -0.60037585      -2.12215570       3.19071653  T        1        2
O       -0.49808501      -1.11261688       4.06182533  T        1        2
O       -0.32894380      -2.03664227       2.02476532  T        1        2
H       -1.41499507      -0.88242139       5.89173508  T        1        2
H        0.18582405      -1.67481183       5.92243584  T        1        2
H       -1.04369769      -3.74780892       5.77475128  T        1        2
H       -2.50932475      -2.91398982       5.18461587  T        1        2
41
Properties=species:S:1:pos:R:3:is_solvent:L:1:group_label:I:1:tags:I:1 Coordinates=T from=T ORCA-job=T Li1EC4_r05_charge_1_spin_1_liquid_t_traj_4_frame_0001=T E=T -1378.039383144868=T solvent_indices_0based="_JSON [31, 32, 33, 34, 35, 36, 37, 38, 39, 40]" complex_indices_0based="_JSON [0, 1, 2, 3, 4, 5, 6, 7, 8, 9, 10, 11, 12, 13, 14, 15, 16, 17, 18, 19, 20, 21, 22, 23, 24, 25, 26, 27, 28, 29, 30]" complex_indices_1based="_JSON [1, 2, 3, 4, 5, 6, 7, 8, 9, 10, 11, 12, 13, 14, 15, 16, 17, 18, 19, 20, 21, 22, 23, 24, 25, 26, 27, 28, 29, 30, 31]" pbc="F F F"
Li      -0.36101500       0.17660700       0.94049400  F        0        1
C        4.16188300      -0.03730700       0.14750300  F        0        1
C        4.49030600       1.43941600       0.36603400  F        0        1
O        3.19111300       2.02324100       0.58508600  F        0        1
C        2.31738900       1.05884400       0.85935900  F        0        1
O        2.84865200      -0.15686800       0.72745400  F        0        1
O        1.17766600       1.26317700       1.19438600  F        0        1
H        4.09316800      -0.30821400      -0.90696100  F        0        1
H        4.83155100      -0.71780500       0.66887100  F        0        1
H        5.09675400       1.61599400       1.25545800  F        0        1
H        4.94139000       1.92134500      -0.49857400  F        0        1
C       -1.70218100      -3.82887900      -0.58668500  F        0        1
C       -0.39721200      -4.11855900      -1.32585000  F        0        1
O        0.31334300      -2.87071300      -1.21001800  F        0        1
C       -0.53502600      -1.91639700      -0.83690800  F        0        1
O       -1.75845300      -2.39039000      -0.60820300  F        0        1
O       -0.23207300      -0.75374900      -0.72942400  F        0        1
H       -2.58678000      -4.21578300      -1.08773900  F        0        1
H       -1.67730900      -4.14762100       0.45615100  F        0        1
H        0.20331900      -4.89855000      -0.86282100  F        0        1
H       -0.54296400      -4.33186300      -2.38587400  F        0        1
C       -3.57788500       3.31827300      -0.14395800  F        0        1
C       -4.43251200       3.19750900       1.11897800  F        0        1
O       -3.92029500       2.00116000       1.73929900  F        0        1
C       -2.75195100       1.68470900       1.18827300  F        0        1
O       -2.45476700       2.46468100       0.14909000  F        0        1
O       -2.04373300       0.79378800       1.58475500  F        0        1
H       -4.07582700       2.93197600      -1.03420200  F        0        1
H       -3.20534300       4.32358900      -0.32813500  F        0        1
H       -4.29159000       4.02635900       1.81363600  F        0        1
H       -5.49158500       3.05233000       0.91710100  F        0        1
C       -0.76345100      -1.59529900       5.39060200  T        1        2
C       -1.42013700      -2.95242700       5.13477200  T        1        2
O       -1.04025200      -3.24180600       3.77713600  T        1        2
C       -0.60037600      -2.12215600       3.19071700  T        1        2
O       -0.49808500      -1.11261700       4.06182500  T        1        2
O       -0.32894400      -2.03664200       2.02476500  T        1        2
H       -1.41499500      -0.88242100       5.89173500  T        1        2
H        0.18582400      -1.67481200       5.92243600  T        1        2
H       -1.04369800      -3.74780900       5.77475100  T        1        2
H       -2.50932500      -2.91399000       5.18461600  T        1        2
41
Properties=species:S:1:pos:R:3:is_solvent:L:1:group_label:I:1:tags:I:1 Coordinates=T from=T ORCA-job=T Li1EC4_r05_charge_1_spin_1_liquid_t_traj_4_frame_0002=T E=T -1378.040744437870=T solvent_indices_0based="_JSON [31, 32, 33, 34, 35, 36, 37, 38, 39, 40]" complex_indices_0based="_JSON [0, 1, 2, 3, 4, 5, 6, 7, 8, 9, 10, 11, 12, 13, 14, 15, 16, 17, 18, 19, 20, 21, 22, 23, 24, 25, 26, 27, 28, 29, 30]" complex_indices_1based="_JSON [1, 2, 3, 4, 5, 6, 7, 8, 9, 10, 11, 12, 13, 14, 15, 16, 17, 18, 19, 20, 21, 22, 23, 24, 25, 26, 27, 28, 29, 30, 31]" pbc="F F F"
Li      -0.78384284       0.09781884       0.72768300  F        0        1
C        3.63209996      -0.45366092      -0.40638511  F        0        1
C        4.01803508      -0.52391805       1.07205519  F        0        1
O        3.01272753       0.29596712       1.69746165  F        0        1
C        1.98067273       0.41488994       0.86328938  F        0        1
O        2.25007126      -0.04455459      -0.35186448  F        0        1
O        0.91950025       0.88644632       1.17901875  F        0        1
H        4.19425252       0.30759549      -0.96460182  F        0        1
H        3.68021374      -1.41744773      -0.92072734  F        0        1
H        3.93324057      -1.52716869       1.48536169  F        0        1
H        4.99317700      -0.10188885       1.29160080  F        0        1
C       -0.57858020      -4.55901553      -0.13372167  F        0        1
C        0.31769625      -4.33425933      -1.34525679  F        0        1
O        0.40205993      -2.90741539      -1.39822469  F        0        1
C       -0.57392034      -2.38341180      -0.66579029  F        0        1
O       -1.26158042      -3.30536474      -0.01070441  F        0        1
O       -0.81671763      -1.21838464      -0.62067572  F        0        1
H       -1.31561710      -5.33770399      -0.27946778  F        0        1
H       -0.01253208      -4.72332934       0.78651243  F        0        1
H        1.31660475      -4.73211873      -1.22415129  F        0        1
H       -0.12162639      -4.68872979      -2.28377449  F        0        1
C       -4.35223160       3.24185148       2.64708295  F        0        1
C       -4.96786033       3.30615131       1.25329835  F        0        1
O       -3.96840793       2.66267376       0.43698382  F        0        1
C       -3.13842607       1.97653955       1.21288421  F        0        1
O       -3.36772630       2.19538595       2.51141375  F        0        1
O       -2.28490726       1.24122076       0.80017905  F        0        1
H       -3.83941036       4.15695382       2.92536167  F        0        1
H       -5.05033925       2.95552054       3.42191005  F        0        1
H       -5.89048805       2.73922967       1.16619950  F        0        1
H       -5.11389075       4.32003469       0.88668523  F        0        1
C       -1.13855614      -0.27184699       3.84040659  T        1        2
C       -0.38811765      -1.16123793       4.82709012  T        1        2
O        0.60387711      -1.80255017       3.99693594  T        1        2
C        0.28059577      -1.65969212       2.71443821  T        1        2
O       -0.83084886      -0.89569000       2.57745212  T        1        2
O        0.86878578      -2.12343574       1.78823618  T        1        2
H       -2.21688506      -0.27590735       3.97523068  T        1        2
H       -0.76389066       0.75196910       3.81317642  T        1        2
H        0.12714599      -0.60710430       5.60590418  T        1        2
H       -1.02071729      -1.93554268       5.26972743  T        1        2
41
Properties=species:S:1:pos:R:3:is_solvent:L:1:group_label:I:1:tags:I:1 Coordinates=T from=T ORCA-job=T Li1EC4_r05_charge_1_spin_1_liquid_t_traj_4_frame_0002=T E=T -1378.040744437870=T solvent_indices_0based="_JSON [31, 32, 33, 34, 35, 36, 37, 38, 39, 40]" complex_indices_0based="_JSON [0, 1, 2, 3, 4, 5, 6, 7, 8, 9, 10, 11, 12, 13, 14, 15, 16, 17, 18, 19, 20, 21, 22, 23, 24, 25, 26, 27, 28, 29, 30]" complex_indices_1based="_JSON [1, 2, 3, 4, 5, 6, 7, 8, 9, 10, 11, 12, 13, 14, 15, 16, 17, 18, 19, 20, 21, 22, 23, 24, 25, 26, 27, 28, 29, 30, 31]" pbc="F F F"
Li      -0.78384300       0.09781900       0.72768300  F        0        1
C        3.63210000      -0.45366100      -0.40638500  F        0        1
C        4.01803500      -0.52391800       1.07205500  F        0        1
O        3.01272800       0.29596700       1.69746200  F        0        1
C        1.98067300       0.41489000       0.86328900  F        0        1
O        2.25007100      -0.04455500      -0.35186400  F        0        1
O        0.91950000       0.88644600       1.17901900  F        0        1
H        4.19425300       0.30759500      -0.96460200  F        0        1
H        3.68021400      -1.41744800      -0.92072700  F        0        1
H        3.93324100      -1.52716900       1.48536200  F        0        1
H        4.99317700      -0.10188900       1.29160100  F        0        1
C       -0.57858000      -4.55901600      -0.13372200  F        0        1
C        0.31769600      -4.33425900      -1.34525700  F        0        1
O        0.40206000      -2.90741500      -1.39822500  F        0        1
C       -0.57392000      -2.38341200      -0.66579000  F        0        1
O       -1.26158000      -3.30536500      -0.01070400  F        0        1
O       -0.81671800      -1.21838500      -0.62067600  F        0        1
H       -1.31561700      -5.33770400      -0.27946800  F        0        1
H       -0.01253200      -4.72332900       0.78651200  F        0        1
H        1.31660500      -4.73211900      -1.22415100  F        0        1
H       -0.12162600      -4.68873000      -2.28377400  F        0        1
C       -4.35223200       3.24185100       2.64708300  F        0        1
C       -4.96786000       3.30615100       1.25329800  F        0        1
O       -3.96840800       2.66267400       0.43698400  F        0        1
C       -3.13842600       1.97654000       1.21288400  F        0        1
O       -3.36772600       2.19538600       2.51141400  F        0        1
O       -2.28490700       1.24122100       0.80017900  F        0        1
H       -3.83941000       4.15695400       2.92536200  F        0        1
H       -5.05033900       2.95552100       3.42191000  F        0        1
H       -5.89048800       2.73923000       1.16620000  F        0        1
H       -5.11389100       4.32003500       0.88668500  F        0        1
C       -1.13855600      -0.27184700       3.84040700  T        1        2
C       -0.38811800      -1.16123800       4.82709000  T        1        2
O        0.60387700      -1.80255000       3.99693600  T        1        2
C        0.28059600      -1.65969200       2.71443800  T        1        2
O       -0.83084900      -0.89569000       2.57745200  T        1        2
O        0.86878600      -2.12343600       1.78823600  T        1        2
H       -2.21688500      -0.27590700       3.97523100  T        1        2
H       -0.76389100       0.75196900       3.81317600  T        1        2
H        0.12714600      -0.60710400       5.60590400  T        1        2
H       -1.02071700      -1.93554300       5.26972700  T        1        2
41
Properties=species:S:1:pos:R:3:is_solvent:L:1:group_label:I:1:tags:I:1 Coordinates=T from=T ORCA-job=T Li1EC4_r05_charge_1_spin_1_liquid_t_traj_4_frame_0003=T E=T -1378.044344258163=T solvent_indices_0based="_JSON [31, 32, 33, 34, 35, 36, 37, 38, 39, 40]" complex_indices_0based="_JSON [0, 1, 2, 3, 4, 5, 6, 7, 8, 9, 10, 11, 12, 13, 14, 15, 16, 17, 18, 19, 20, 21, 22, 23, 24, 25, 26, 27, 28, 29, 30]" complex_indices_1based="_JSON [1, 2, 3, 4, 5, 6, 7, 8, 9, 10, 11, 12, 13, 14, 15, 16, 17, 18, 19, 20, 21, 22, 23, 24, 25, 26, 27, 28, 29, 30, 31]" pbc="F F F"
Li       0.48249444      -0.41426942       0.99322700  F        0        1
C        4.65177756       1.16821444      -0.41678398  F        0        1
C        5.33901873       1.14650661       0.95031451  F        0        1
O        4.23550000       0.95376096       1.86102799  F        0        1
C        3.16832179       0.55937786       1.17944491  F        0        1
O        3.36482767       0.57981672      -0.13526923  F        0        1
O        2.13049296       0.21996467       1.69735537  F        0        1
H        4.48682920       2.17618818      -0.79860514  F        0        1
H        5.15063009       0.55848735      -1.16679534  F        0        1
H        6.02643775       0.30883552       1.07143103  F        0        1
H        5.83449518       2.08011233       1.20718580  F        0        1
C       -2.83483524      -3.06884095      -0.79389715  F        0        1
C       -2.14547797      -4.39827790      -0.48328138  F        0        1
O       -0.88836920      -3.98099274       0.08263828  F        0        1
C       -0.70424334      -2.68807469      -0.15810134  F        0        1
O       -1.74197198      -2.13283068      -0.77756761  F        0        1
O        0.30022066      -2.09006155       0.14382248  F        0        1
H       -3.30147478      -3.03466958      -1.77603666  F        0        1
H       -3.54153023      -2.77258581      -0.01887263  F        0        1
H       -2.67138176      -4.99649257       0.25770407  F        0        1
H       -1.93706218      -4.99442292      -1.37251338  F        0        1
C       -3.76766832       1.38831745       2.47195131  F        0        1
C       -4.30617199       0.81191177       1.16193039  F        0        1
O       -3.14518638       0.81533715       0.30682215  F        0        1
C       -2.05402308       0.95040757       1.04703193  F        0        1
O       -2.34061320       1.24079000       2.32280785  F        0        1
O       -0.92866338       0.83120156       0.63616907  F        0        1
H       -3.98839586       2.44900346       2.59587064  F        0        1
H       -4.07955454       0.82943054       3.35247284  F        0        1
H       -4.64426418      -0.21898962       1.26586440  F        0        1
H       -5.07487736       1.42413262       0.69571664  F        0        1
C       -0.99009750      -0.52104978       5.04588925  T        1        2
C        0.22151722      -0.79684710       4.15803333  T        1        2
O       -0.38967067      -1.13111406       2.89454383  T        1        2
C       -1.69610440      -1.42700467       3.08762211  T        1        2
O       -2.06227362      -1.18095317       4.34660433  T        1        2
O       -2.42208653      -1.84085574       2.23135796  T        1        2
H       -0.90950677      -0.95528330       6.04000247  T        1        2
H       -1.22998394       0.54074331       5.11278895  T        1        2
H        0.86871831       0.06400161       4.00790260  T        1        2
H        0.80688178      -1.65550510       4.48872841  T        1        2
41
Properties=species:S:1:pos:R:3:is_solvent:L:1:group_label:I:1:tags:I:1 Coordinates=T from=T ORCA-job=T Li1EC4_r05_charge_1_spin_1_liquid_t_traj_4_frame_0003=T E=T -1378.044344258163=T solvent_indices_0based="_JSON [31, 32, 33, 34, 35, 36, 37, 38, 39, 40]" complex_indices_0based="_JSON [0, 1, 2, 3, 4, 5, 6, 7, 8, 9, 10, 11, 12, 13, 14, 15, 16, 17, 18, 19, 20, 21, 22, 23, 24, 25, 26, 27, 28, 29, 30]" complex_indices_1based="_JSON [1, 2, 3, 4, 5, 6, 7, 8, 9, 10, 11, 12, 13, 14, 15, 16, 17, 18, 19, 20, 21, 22, 23, 24, 25, 26, 27, 28, 29, 30, 31]" pbc="F F F"
Li       0.48249400      -0.41426900       0.99322700  F        0        1
C        4.65177800       1.16821400      -0.41678400  F        0        1
C        5.33901900       1.14650700       0.95031500  F        0        1
O        4.23550000       0.95376100       1.86102800  F        0        1
C        3.16832200       0.55937800       1.17944500  F        0        1
O        3.36482800       0.57981700      -0.13526900  F        0        1
O        2.13049300       0.21996500       1.69735500  F        0        1
H        4.48682900       2.17618800      -0.79860500  F        0        1
H        5.15063000       0.55848700      -1.16679500  F        0        1
H        6.02643800       0.30883600       1.07143100  F        0        1
H        5.83449500       2.08011200       1.20718600  F        0        1
C       -2.83483500      -3.06884100      -0.79389700  F        0        1
C       -2.14547800      -4.39827800      -0.48328100  F        0        1
O       -0.88836900      -3.98099300       0.08263800  F        0        1
C       -0.70424300      -2.68807500      -0.15810100  F        0        1
O       -1.74197200      -2.13283100      -0.77756800  F        0        1
O        0.30022100      -2.09006200       0.14382200  F        0        1
H       -3.30147500      -3.03467000      -1.77603700  F        0        1
H       -3.54153000      -2.77258600      -0.01887300  F        0        1
H       -2.67138200      -4.99649300       0.25770400  F        0        1
H       -1.93706200      -4.99442300      -1.37251300  F        0        1
C       -3.76766800       1.38831700       2.47195100  F        0        1
C       -4.30617200       0.81191200       1.16193000  F        0        1
O       -3.14518600       0.81533700       0.30682200  F        0        1
C       -2.05402300       0.95040800       1.04703200  F        0        1
O       -2.34061300       1.24079000       2.32280800  F        0        1
O       -0.92866300       0.83120200       0.63616900  F        0        1
H       -3.98839600       2.44900300       2.59587100  F        0        1
H       -4.07955500       0.82943100       3.35247300  F        0        1
H       -4.64426400      -0.21899000       1.26586400  F        0        1
H       -5.07487700       1.42413300       0.69571700  F        0        1
C       -0.99009700      -0.52105000       5.04588900  T        1        2
C        0.22151700      -0.79684700       4.15803300  T        1        2
O       -0.38967100      -1.13111400       2.89454400  T        1        2
C       -1.69610400      -1.42700500       3.08762200  T        1        2
O       -2.06227400      -1.18095300       4.34660400  T        1        2
O       -2.42208700      -1.84085600       2.23135800  T        1        2
H       -0.90950700      -0.95528300       6.04000200  T        1        2
H       -1.22998400       0.54074300       5.11278900  T        1        2
H        0.86871800       0.06400200       4.00790300  T        1        2
H        0.80688200      -1.65550500       4.48872800  T        1        2
41
Properties=species:S:1:pos:R:3:is_solvent:L:1:group_label:I:1:tags:I:1 Coordinates=T from=T ORCA-job=T Li1EC4_r05_charge_1_spin_1_liquid_t_traj_4_frame_0004=T E=T -1378.040786587614=T solvent_indices_0based="_JSON [31, 32, 33, 34, 35, 36, 37, 38, 39, 40]" complex_indices_0based="_JSON [0, 1, 2, 3, 4, 5, 6, 7, 8, 9, 10, 11, 12, 13, 14, 15, 16, 17, 18, 19, 20, 21, 22, 23, 24, 25, 26, 27, 28, 29, 30]" complex_indices_1based="_JSON [1, 2, 3, 4, 5, 6, 7, 8, 9, 10, 11, 12, 13, 14, 15, 16, 17, 18, 19, 20, 21, 22, 23, 24, 25, 26, 27, 28, 29, 30, 31]" pbc="F F F"
Li       0.81988385      -0.11241481       0.99911704  F        0        1
C        4.94149740       1.31802760      -1.26434747  F        0        1
C        5.75508873       1.21892139       0.02768168  F        0        1
O        4.73564018       1.09681785       1.03963833  F        0        1