41
Properties=species:S:1:pos:R:3:is_solvent:L:1:group_label:I:1:tags:I:1 Coordinates=T from=T ORCA-job=T Li1EC4_r01_charge_1_spin_1_liquid_t_traj_1_frame_0000=T E=T -1378.044603161913=T solvent_indices_0based="_JSON [1, 2, 3, 4, 5, 6, 7, 8, 9, 10]" complex_indices_0based="_JSON [0, 11, 12, 13, 14, 15, 16, 17, 18, 19, 20, 21, 22, 23, 24, 25, 26, 27, 28, 29, 30, 31, 32, 33, 34, 35, 36, 37, 38, 39, 40]" complex_indices_1based="_JSON [1, 12, 13, 14, 15, 16, 17, 18, 19, 20, 21, 22, 23, 24, 25, 26, 27, 28, 29, 30, 31, 32, 33, 34, 35, 36, 37, 38, 39, 40, 41]" pbc="F F F"
Li       0.00984864      -0.06573945      -0.01894929  F        0        1
C        4.02972542       0.84694683      -2.24116904  T        1        2
C        3.69497999       2.29336813      -2.61187559  T        1        2
O        2.61687616       2.61434925      -1.71426475  T        1        2
C        2.13351579       1.49139980      -1.18209484  T        1        2
O        2.86346921       0.42465434      -1.51147055  T        1        2
O        1.15574199       1.45119275      -0.48242913  T        1        2
H        4.15227590       0.19242841      -3.10168355  T        1        2
H        4.89443639       0.76422291      -1.58129488  T        1        2
H        4.51143652       2.98994555      -2.43260617  T        1        2
H        3.33056384       2.39825800      -3.63463524  T        1        2
C       -3.35901634       3.64155126       0.73496269  F        0        1
C       -2.66598764       3.62065465      -0.62783466  F        0        1
O       -2.07889471       2.30700432      -0.66372731  F        0        1
C       -2.04409598       1.80701369       0.57274878  F        0        1
O       -2.70016358       2.57462741       1.44278387  F        0        1
O       -1.49169805       0.78025944       0.87060747  F        0        1
H       -3.20787887       4.56583436       1.28862923  F        0        1
H       -4.42315329       3.40794834       0.67772433  F        0        1
H       -3.34944457       3.71548957      -1.46898485  F        0        1
H       -1.86325083       4.35492543      -0.70946908  F        0        1
C       -2.18991201      -3.82013318      -1.70686698  F        0        1
C       -1.30471774      -4.00059598      -2.94177166  F        0        1
O       -0.64955721      -2.72429720      -3.05714958  F        0        1
C       -0.79682159      -2.04639963      -1.91921273  F        0        1
O       -1.61689383      -2.66480044      -1.06792835  F        0        1
O       -0.25527766      -0.99615033      -1.69230309  F        0        1
H       -3.22802493      -3.59436843      -1.95462330  F        0        1
H       -2.14502419      -4.65540284      -1.01099817  F        0        1
H       -0.53944922      -4.76670128      -2.81034200  F        0        1
H       -1.86420030      -4.18440547      -3.85671421  F        0        1
C        0.80860394      -0.43268982       4.51674542  F        0        1
C        1.03893061      -1.94226045       4.58771165  F        0        1
O        0.74156203      -2.37182809       3.24569761  F        0        1
C        0.74202244      -1.31422747       2.43475866  F        0        1
O        0.88298174      -0.16841280       3.10388353  F        0        1
O        0.63304644      -1.38825398       1.23867818  F        0        1
H       -0.18061125      -0.13517062       4.86782806  F        0        1
H        1.57681117       0.15227327       5.01805093  F        0        1
H        2.07387476      -2.20686119       4.80961092  F        0        1
H        0.36620984      -2.45683225       5.27052529  F        0        1
41
Properties=species:S:1:pos:R:3:is_solvent:L:1:group_label:I:1:tags:I:1 Coordinates=T from=T ORCA-job=T Li1EC4_r01_charge_1_spin_1_liquid_t_traj_1_frame_0000=T E=T -1378.044603161913=T solvent_indices_0based="_JSON [1, 2, 3, 4, 5, 6, 7, 8, 9, 10]" complex_indices_0based="_JSON [0, 11, 12, 13, 14, 15, 16, 17, 18, 19, 20, 21, 22, 23, 24, 25, 26, 27, 28, 29, 30, 31, 32, 33, 34, 35, 36, 37, 38, 39, 40]" complex_indices_1based="_JSON [1, 12, 13, 14, 15, 16, 17, 18, 19, 20, 21, 22, 23, 24, 25, 26, 27, 28, 29, 30, 31, 32, 33, 34, 35, 36, 37, 38, 39, 40, 41]" pbc="F F F"
Li       0.00984900      -0.06573900      -0.01894900  F        0        1
C        4.02972500       0.84694700      -2.24116900  T        1        2
C        3.69498000       2.29336800      -2.61187600  T        1        2
O        2.61687600       2.61434900      -1.71426500  T        1        2
C        2.13351600       1.49140000      -1.18209500  T        1        2
O        2.86346900       0.42465400      -1.51147100  T        1        2
O        1.15574200       1.45119300      -0.48242900  T        1        2
H        4.15227600       0.19242800      -3.10168400  T        1        2
H        4.89443600       0.76422300      -1.58129500  T        1        2
H        4.51143700       2.98994600      -2.43260600  T        1        2
H        3.33056400       2.39825800      -3.63463500  T        1        2
C       -3.35901600       3.64155100       0.73496300  F        0        1
C       -2.66598800       3.62065500      -0.62783500  F        0        1
O       -2.07889500       2.30700400      -0.66372700  F        0        1
C       -2.04409600       1.80701400       0.57274900  F        0        1
O       -2.70016400       2.57462700       1.44278400  F        0        1
O       -1.49169800       0.78025900       0.87060700  F        0        1
H       -3.20787900       4.56583400       1.28862900  F        0        1
H       -4.42315300       3.40794800       0.67772400  F        0        1
H       -3.34944500       3.71549000      -1.46898500  F        0        1
H       -1.86325100       4.35492500      -0.70946900  F        0        1
C       -2.18991200      -3.82013300      -1.70686700  F        0        1
C       -1.30471800      -4.00059600      -2.94177200  F        0        1
O       -0.64955700      -2.72429700      -3.05715000  F        0        1
C       -0.79682200      -2.04640000      -1.91921300  F        0        1
O       -1.61689400      -2.66480000      -1.06792800  F        0        1
O       -0.25527800      -0.99615000      -1.69230300  F        0        1
H       -3.22802500      -3.59436800      -1.95462300  F        0        1
H       -2.14502400      -4.65540300      -1.01099800  F        0        1
H       -0.53944900      -4.76670100      -2.81034200  F        0        1
H       -1.86420000      -4.18440500      -3.85671400  F        0        1
C        0.80860400      -0.43269000       4.51674500  F        0        1
C        1.03893100      -1.94226000       4.58771200  F        0        1
O        0.74156200      -2.37182800       3.24569800  F        0        1
C        0.74202200      -1.31422700       2.43475900  F        0        1
O        0.88298200      -0.16841300       3.10388400  F        0        1
O        0.63304600      -1.38825400       1.23867800  F        0        1
H       -0.18061100      -0.13517100       4.86782800  F        0        1
H        1.57681100       0.15227300       5.01805100  F        0        1
H        2.07387500      -2.20686100       4.80961100  F        0        1
H        0.36621000      -2.45683200       5.27052500  F        0        1
41
Properties=species:S:1:pos:R:3:is_solvent:L:1:group_label:I:1:tags:I:1 Coordinates=T from=T ORCA-job=T Li1EC4_r01_charge_1_spin_1_liquid_t_traj_1_frame_0001=T E=T -1378.039483768623=T solvent_indices_0based="_JSON [1, 2, 3, 4, 5, 6, 7, 8, 9, 10]" complex_indices_0based="_JSON [0, 11, 12, 13, 14, 15, 16, 17, 18, 19, 20, 21, 22, 23, 24, 25, 26, 27, 28, 29, 30, 31, 32, 33, 34, 35, 36, 37, 38, 39, 40]" complex_indices_1based="_JSON [1, 12, 13, 14, 15, 16, 17, 18, 19, 20, 21, 22, 23, 24, 25, 26, 27, 28, 29, 30, 31, 32, 33, 34, 35, 36, 37, 38, 39, 40, 41]" pbc="F F F"
Li      -0.19559097      -0.52549450       0.07991296  F        0        1
C        3.71778724       1.23113520      -2.01253907  T        1        2
C        3.28643267       2.61591332      -2.49814153  T        1        2
O        2.14969876       2.90681533      -1.66578932  T        1        2
C        1.72021434       1.77797216      -1.09115857  T        1        2
O        2.54576959       0.75360767      -1.32950760  T        1        2
O        0.71537709       1.69625458      -0.43942474  T        1        2
H        3.95418144       0.53977823      -2.81877428  T        1        2
H        4.54124109       1.26817794      -1.29760690  T        1        2
H        4.03721512       3.38771757      -2.34141367  T        1        2
H        2.95919137       2.61800930      -3.53899818  T        1        2
C       -2.36723373       3.73243901       0.92436797  F        0        1
C       -2.29483151       3.37907419      -0.56036273  F        0        1
O       -2.28875832       1.94012885      -0.53711233  F        0        1
C       -1.92267255       1.53109159       0.67594527  F        0        1
O       -1.90111484       2.52621851       1.55820497  F        0        1
O       -1.65235501       0.38717732       0.94790046  F        0        1
H       -1.70797996       4.54847355       1.21231991  F        0        1
H       -3.38390570       3.92923544       1.26814261  F        0        1
H       -3.15721929       3.71192378      -1.13386079  F        0        1
H       -1.36823342       3.71123497      -1.03027732  F        0        1
C       -2.32246329      -3.94673797      -2.26780771  F        0        1
C       -1.48271333      -3.86244850      -3.54371669  F        0        1
O       -0.79037328      -2.60836150      -3.38931713  F        0        1
C       -0.87692529      -2.21066320      -2.12308550  F        0        1
O       -1.67987877      -2.99167662      -1.40108098  F        0        1
O       -0.29532665      -1.25211541      -1.68141092  F        0        1
H       -3.35625812      -3.63142826      -2.41460815  F        0        1
H       -2.29301565      -4.92196862      -1.78662513  F        0        1
H       -0.73777161      -4.65563807      -3.61877429  F        0        1
H       -2.07549879      -3.81826379      -4.45488138  F        0        1
C        1.16209332      -0.13546906       4.49301706  F        0        1
C        1.53371640      -1.60098978       4.71992570  F        0        1
O        1.14872536      -2.22124811       3.47830796  F        0        1
C        0.97210370      -1.28129946       2.55370656  F        0        1
O        1.07355003      -0.05151694       3.05787577  F        0        1
O        0.75144911      -1.51822618       1.39305142  F        0        1
H        0.18891658       0.12826513       4.90945844  F        0        1
H        1.91948395       0.56712137       4.83386539  F        0        1
H        2.60483150      -1.75372644       4.85989720  F        0        1
H        0.97903366      -2.07428299       5.52720969  F        0        1
41
Properties=species:S:1:pos:R:3:is_solvent:L:1:group_label:I:1:tags:I:1 Coordinates=T from=T ORCA-job=T Li1EC4_r01_charge_1_spin_1_liquid_t_traj_1_frame_0001=T E=T -1378.039483768623=T solvent_indices_0based="_JSON [1, 2, 3, 4, 5, 6, 7, 8, 9, 10]" complex_indices_0based="_JSON [0, 11, 12, 13, 14, 15, 16, 17, 18, 19, 20, 21, 22, 23, 24, 25, 26, 27, 28, 29, 30, 31, 32, 33, 34, 35, 36, 37, 38, 39, 40]" complex_indices_1based="_JSON [1, 12, 13, 14, 15, 16, 17, 18, 19, 20, 21, 22, 23, 24, 25, 26, 27, 28, 29, 30, 31, 32, 33, 34, 35, 36, 37, 38, 39, 40, 41]" pbc="F F F"
Li      -0.19559100      -0.52549400       0.07991300  F        0        1
C        3.71778700       1.23113500      -2.01253900  T        1        2
C        3.28643300       2.61591300      -2.49814200  T        1        2
O        2.14969900       2.90681500      -1.66578900  T        1        2
C        1.72021400       1.77797200      -1.09115900  T        1        2
O        2.54577000       0.75360800      -1.32950800  T        1        2
O        0.71537700       1.69625500      -0.43942500  T        1        2
H        3.95418100       0.53977800      -2.81877400  T        1        2
H        4.54124100       1.26817800      -1.29760700  T        1        2
H        4.03721500       3.38771800      -2.34141400  T        1        2
H        2.95919100       2.61800900      -3.53899800  T        1        2
C       -2.36723400       3.73243900       0.92436800  F        0        1
C       -2.29483200       3.37907400      -0.56036300  F        0        1
O       -2.28875800       1.94012900      -0.53711200  F        0        1
C       -1.92267300       1.53109200       0.67594500  F        0        1
O       -1.90111500       2.52621900       1.55820500  F        0        1
O       -1.65235500       0.38717700       0.94790000  F        0        1
H       -1.70798000       4.54847400       1.21232000  F        0        1
H       -3.38390600       3.92923500       1.26814300  F        0        1
H       -3.15721900       3.71192400      -1.13386100  F        0        1
H       -1.36823300       3.71123500      -1.03027700  F        0        1
C       -2.32246300      -3.94673800      -2.26780800  F        0        1
C       -1.48271300      -3.86244900      -3.54371700  F        0        1
O       -0.79037300      -2.60836100      -3.38931700  F        0        1
C       -0.87692500      -2.21066300      -2.12308600  F        0        1
O       -1.67987900      -2.99167700      -1.40108100  F        0        1
O       -0.29532700      -1.25211500      -1.68141100  F        0        1
H       -3.35625800      -3.63142800      -2.41460800  F        0        1
H       -2.29301600      -4.92196900      -1.78662500  F        0        1
H       -0.73777200      -4.65563800      -3.61877400  F        0        1
H       -2.07549900      -3.81826400      -4.45488100  F        0        1
C        1.16209300      -0.13546900       4.49301700  F        0        1
C        1.53371600      -1.60099000       4.71992600  F        0        1
O        1.14872500      -2.22124800       3.47830800  F        0        1
C        0.97210400      -1.28129900       2.55370700  F        0        1
O        1.07355000      -0.05151700       3.05787600  F        0        1
O        0.75144900      -1.51822600       1.39305100  F        0        1
H        0.18891700       0.12826500       4.90945800  F        0        1
H        1.91948400       0.56712100       4.83386500  F        0        1
H        2.60483100      -1.75372600       4.85989700  F        0        1
H        0.97903400      -2.07428300       5.52721000  F        0        1
41
Properties=species:S:1:pos:R:3:is_solvent:L:1:group_label:I:1:tags:I:1 Coordinates=T from=T ORCA-job=T Li1EC4_r01_charge_1_spin_1_liquid_t_traj_1_frame_0002=T E=T -1378.041840326718=T solvent_indices_0based="_JSON [1, 2, 3, 4, 5, 6, 7, 8, 9, 10]" complex_indices_0based="_JSON [0, 11, 12, 13, 14, 15, 16, 17, 18, 19, 20, 21, 22, 23, 24, 25, 26, 27, 28, 29, 30, 31, 32, 33, 34, 35, 36, 37, 38, 39, 40]" complex_indices_1based="_JSON [1, 12, 13, 14, 15, 16, 17, 18, 19, 20, 21, 22, 23, 24, 25, 26, 27, 28, 29, 30, 31, 32, 33, 34, 35, 36, 37, 38, 39, 40, 41]" pbc="F F F"
Li       0.64442724      -0.13942392       0.10852778  F        0        1
C        3.38869603       1.06595054      -0.80529464  T        1        2
C        3.51567289       1.73019488      -2.18043259  T        1        2
O        2.30052410       2.48921165      -2.30042915  T        1        2
C        1.42482579       2.10461300      -1.37565280  T        1        2
O        1.99790204       1.25234999      -0.48874625  T        1        2
O        0.28074579       2.43233124      -1.30438752  T        1        2
H        3.59802148      -0.00212263      -0.81902570  T        1        2
H        3.98033048       1.55539130      -0.03168595  T        1        2
H        4.35668524       2.41657961      -2.25330179  T        1        2
H        3.54668410       1.00757850      -2.99626080  T        1        2
C       -2.86030371       3.25719141       0.06597646  F        0        1
C       -2.88099362       2.38016297      -1.18748827  F        0        1
O       -2.29668795       1.14721366      -0.72257844  F        0        1
C       -1.64209597       1.38410685       0.41594714  F        0        1
O       -1.91775258       2.57884771       0.91781765  F        0        1
O       -0.89971161       0.58966663       0.94106407  F        0        1
H       -2.48861970       4.26260054      -0.11989158  F        0        1
H       -3.81906366       3.29693525       0.58410834  F        0        1
H       -3.88327892       2.16785512      -1.55406687  F        0        1
H       -2.24877277       2.77088863      -1.98402261  F        0        1
C       -2.54889261      -2.53697657      -2.10358869  F        0        1
C       -1.97632074      -2.47816440      -3.51980731  F        0        1
O       -0.87728277      -1.55608819      -3.37840095  F        0        1
C       -0.58589531      -1.41863976      -2.08880470  F        0        1
O       -1.45665176      -2.04719181      -1.30221175  F        0        1
O        0.36365882      -0.79727254      -1.67908286  F        0        1
H       -3.40061201      -1.87118019      -1.95775959  F        0        1
H       -2.79518023      -3.54294832      -1.77096032  F        0        1
H       -1.57725021      -3.43436537      -3.86048488  F        0        1
H       -2.66855447      -2.07647038      -4.25657517  F        0        1
C        2.01725513      -0.29044250       4.54930378  F        0        1
C        2.33169799      -1.78504258       4.59989772  F        0        1
O        1.95403103      -2.22964282       3.28077652  F        0        1
C        1.84672260      -1.17616209       2.47762602  F        0        1
O        1.98484888      -0.02196281       3.13271892  F        0        1
O        1.65258514      -1.25616741       1.28970398  F        0        1
H        1.03893105      -0.04294095       4.96343089  F        0        1
H        2.78438952       0.33498181       5.00107310  F        0        1
H        3.39334299      -1.99364570       4.73672803  F        0        1
H        1.74088774      -2.33419781       5.32936203  F        0        1
41
Properties=species:S:1:pos:R:3:is_solvent:L:1:group_label:I:1:tags:I:1 Coordinates=T from=T ORCA-job=T Li1EC4_r01_charge_1_spin_1_liquid_t_traj_1_frame_0002=T E=T -1378.041840326718=T solvent_indices_0based="_JSON [1, 2, 3, 4, 5, 6, 7, 8, 9, 10]" complex_indices_0based="_JSON [0, 11, 12, 13, 14, 15, 16, 17, 18, 19, 20, 21, 22, 23, 24, 25, 26, 27, 28, 29, 30, 31, 32, 33, 34, 35, 36, 37, 38, 39, 40]" complex_indices_1based="_JSON [1, 12, 13, 14, 15, 16, 17, 18, 19, 20, 21, 22, 23, 24, 25, 26, 27, 28, 29, 30, 31, 32, 33, 34, 35, 36, 37, 38, 39, 40, 41]" pbc="F F F"
Li       0.64442700      -0.13942400       0.10852800  F        0        1
C        3.38869600       1.06595100      -0.80529500  T        1        2
C        3.51567300       1.73019500      -2.18043300  T        1        2
O        2.30052400       2.48921200      -2.30042900  T        1        2
C        1.42482600       2.10461300      -1.37565300  T        1        2
O        1.99790200       1.25235000      -0.48874600  T        1        2
O        0.28074600       2.43233100      -1.30438800  T        1        2
H        3.59802100      -0.00212300      -0.81902600  T        1        2
H        3.98033000       1.55539100      -0.03168600  T        1        2
H        4.35668500       2.41658000      -2.25330200  T        1        2
H        3.54668400       1.00757800      -2.99626100  T        1        2
C       -2.86030400       3.25719100       0.06597600  F        0        1
C       -2.88099400       2.38016300      -1.18748800  F        0        1
O       -2.29668800       1.14721400      -0.72257800  F        0        1
C       -1.64209600       1.38410700       0.41594700  F        0        1
O       -1.91775300       2.57884800       0.91781800  F        0        1
O       -0.89971200       0.58966700       0.94106400  F        0        1
H       -2.48862000       4.26260100      -0.11989200  F        0        1
H       -3.81906400       3.29693500       0.58410800  F        0        1
H       -3.88327900       2.16785500      -1.55406700  F        0        1
H       -2.24877300       2.77088900      -1.98402300  F        0        1
C       -2.54889300      -2.53697700      -2.10358900  F        0        1
C       -1.97632100      -2.47816400      -3.51980700  F        0        1
O       -0.87728300      -1.55608800      -3.37840100  F        0        1
C       -0.58589500      -1.41864000      -2.08880500  F        0        1
O       -1.45665200      -2.04719200      -1.30221200  F        0        1
O        0.36365900      -0.79727300      -1.67908300  F        0        1
H       -3.40061200      -1.87118000      -1.95776000  F        0        1
H       -2.79518000      -3.54294800      -1.77096000  F        0        1
H       -1.57725000      -3.43436500      -3.86048500  F        0        1
H       -2.66855400      -2.07647000      -4.25657500  F        0        1
C        2.01725500      -0.29044300       4.54930400  F        0        1
C        2.33169800      -1.78504300       4.59989800  F        0        1
O        1.95403100      -2.22964300       3.28077700  F        0        1
C        1.84672300      -1.17616200       2.47762600  F        0        1
O        1.98484900      -0.02196300       3.13271900  F        0        1
O        1.65258500      -1.25616700       1.28970400  F        0        1
H        1.03893100      -0.04294100       4.96343100  F        0        1
H        2.78439000       0.33498200       5.00107300  F        0        1
H        3.39334300      -1.99364600       4.73672800  F        0        1
H        1.74088800      -2.33419800       5.32936200  F        0        1
41
Properties=species:S:1:pos:R:3:is_solvent:L:1:group_label:I:1:tags:I:1 Coordinates=T from=T ORCA-job=T Li1EC4_r01_charge_1_spin_1_liquid_t_traj_1_frame_0003=T E=T -1378.037185234601=T solvent_indices_0based="_JSON [1, 2, 3, 4, 5, 6, 7, 8, 9, 10]" complex_indices_0based="_JSON [0, 11, 12, 13, 14, 15, 16, 17, 18, 19, 20, 21, 22, 23, 24, 25, 26, 27, 28, 29, 30, 31, 32, 33, 34, 35, 36, 37, 38, 39, 40]" complex_indices_1based="_JSON [1, 12, 13, 14, 15, 16, 17, 18, 19, 20, 21, 22, 23, 24, 25, 26, 27, 28, 29, 30, 31, 32, 33, 34, 35, 36, 37, 38, 39, 40, 41]" pbc="F F F"
Li      -0.92935634      -0.86598906      -0.70996038  F        0        1
C        3.85226034       3.23495013       1.84272684  T        1        2
C        3.42046408       4.23070776       0.76900479  T        1        2
O        2.22555723       3.62796692       0.24176253  T        1        2
C        2.19663761       2.32313505       0.57221567  T        1        2
O        3.18488422       2.02550101       1.43586885  T        1        2
O        1.39608411       1.53792833       0.16342446  T        1        2
H        4.92425779       3.05015821       1.86364092  T        1        2
H        3.49675852       3.50763657       2.83794108  T        1        2
H        3.17001745       5.21335568       1.16344721  T        1        2
H        4.14655991       4.32343920      -0.04035604  T        1        2
C       -1.07526044       4.08663394      -0.87155436  F        0        1
C       -0.45193463       3.35186897      -2.05935755  F        0        1
O       -0.88241795       1.99526177      -1.85098907  F        0        1
C       -1.29536125       1.85690856      -0.59218439  F        0        1
O       -1.38083868       3.01888890       0.04470500  F        0        1
O       -1.57851790       0.79404675      -0.09712917  F        0        1
H       -0.38820178       4.77270447      -0.38117432  F        0        1
H       -2.00610321       4.59691854      -1.12271451  F        0        1
H       -0.82465247       3.68798816      -3.02461167  F        0        1
H        0.63746894       3.36769629      -2.03935384  F        0        1
C       -3.80662801      -4.79807179      -1.49394317  F        0        1
C       -3.85077750      -4.53813204      -3.00033072  F        0        1
O       -3.28938199      -3.21566801      -3.11222926  F        0        1
C       -2.66636605      -2.90503886      -1.98048129  F        0        1
O       -2.85270443      -3.82086444      -1.03087171  F        0        1
O       -2.00938408      -1.90657160      -1.83256554  F        0        1
H       -4.75866631      -4.60378093      -0.99838809  F        0        1
H       -3.44053676      -5.78770055      -1.22946576  F        0        1
H       -3.22286768      -5.22264170      -3.57202615  F        0        1
H       -4.85758019      -4.52000269      -3.41188890  F        0        1
C        2.16288561      -0.89462463       2.80554551  F        0        1
C        3.36133927      -1.32278990       1.95893715  F        0        1
O        2.81089857      -1.38231584       0.62948705  F        0        1
C        1.48530725      -1.36037103       0.70177799  F        0        1
O        1.04656517      -1.18878156       1.94769753  F        0        1
O        0.75994157      -1.50772392      -0.24972934  F        0        1
H        2.05067842      -1.46507232       3.72528342  F        0        1
H        2.15666120       0.17448214       3.01362936  F        0        1
H        4.17140242      -0.59712883       1.95843481  F        0        1
H        3.73790653      -2.31391238       2.21518308  F        0        1
41
Properties=species:S:1:pos:R:3:is_solvent:L:1:group_label:I:1:tags:I:1 Coordinates=T from=T ORCA-job=T Li1EC4_r01_charge_1_spin_1_liquid_t_traj_1_frame_0003=T E=T -1378.037185234601=T solvent_indices_0based="_JSON [1, 2, 3, 4, 5, 6, 7, 8, 9, 10]" complex_indices_0based="_JSON [0, 11, 12, 13, 14, 15, 16, 17, 18, 19, 20, 21, 22, 23, 24, 25, 26, 27, 28, 29, 30, 31, 32, 33, 34, 35, 36, 37, 38, 39, 40]" complex_indices_1based="_JSON [1, 12, 13, 14, 15, 16, 17, 18, 19, 20, 21, 22, 23, 24, 25, 26, 27, 28, 29, 30, 31, 32, 33, 34, 35, 36, 37, 38, 39, 40, 41]" pbc="F F F"
Li      -0.92935600      -0.86598900      -0.70996000  F        0        1
C        3.85226000       3.23495000       1.84272700  T        1        2
C        3.42046400       4.23070800       0.76900500  T        1        2
O        2.22555700       3.62796700       0.24176300  T        1        2
C        2.19663800       2.32313500       0.57221600  T        1        2
O        3.18488400       2.02550100       1.43586900  T        1        2
O        1.39608400       1.53792800       0.16342400  T        1        2
H        4.92425800       3.05015800       1.86364100  T        1        2
H        3.49675900       3.50763700       2.83794100  T        1        2
H        3.17001700       5.21335600       1.16344700  T        1        2
H        4.14656000       4.32343900      -0.04035600  T        1        2
C       -1.07526000       4.08663400      -0.87155400  F        0        1
C       -0.45193500       3.35186900      -2.05935800  F        0        1
O       -0.88241800       1.99526200      -1.85098900  F        0        1
C       -1.29536100       1.85690900      -0.59218400  F        0        1
O       -1.38083900       3.01888900       0.04470500  F        0        1
O       -1.57851800       0.79404700      -0.09712900  F        0        1
H       -0.38820200       4.77270400      -0.38117400  F        0        1
H       -2.00610300       4.59691900      -1.12271500  F        0        1
H       -0.82465200       3.68798800      -3.02461200  F        0        1
H        0.63746900       3.36769600      -2.03935400  F        0        1
C       -3.80662800      -4.79807200      -1.49394300  F        0        1
C       -3.85077700      -4.53813200      -3.00033100  F        0        1
O       -3.28938200      -3.21566800      -3.11222900  F        0        1
C       -2.66636600      -2.90503900      -1.98048100  F        0        1
O       -2.85270400      -3.82086400      -1.03087200  F        0        1
O       -2.00938400      -1.90657200      -1.83256600  F        0        1
H       -4.75866600      -4.60378100      -0.99838800  F        0        1
H       -3.44053700      -5.78770100      -1.22946600  F        0        1
H       -3.22286800      -5.22264200      -3.57202600  F        0        1
H       -4.85758000      -4.52000300      -3.41188900  F        0        1
C        2.16288600      -0.89462500       2.80554600  F        0        1
C        3.36133900      -1.32279000       1.95893700  F        0        1
O        2.81089900      -1.38231600       0.62948700  F        0        1
C        1.48530700      -1.36037100       0.70177800  F        0        1
O        1.04656500      -1.18878200       1.94769800  F        0        1
O        0.75994200      -1.50772400      -0.24972900  F        0        1
H        2.05067800      -1.46507200       3.72528300  F        0        1
H        2.15666100       0.17448200       3.01362900  F        0        1
H        4.17140200      -0.59712900       1.95843500  F        0        1
H        3.73790700      -2.31391200       2.21518300  F        0        1
41
Properties=species:S:1:pos:R:3:is_solvent:L:1:group_label:I:1:tags:I:1 Coordinates=T from=T ORCA-job=T Li1EC4_r01_charge_1_spin_1_liquid_t_traj_1_frame_0004=T E=T -1378.033384137943=T solvent_indices_0based="_JSON [1, 2, 3, 4, 5, 6, 7, 8, 9, 10]" complex_indices_0based="_JSON [0, 11, 12, 13, 14, 15, 16, 17, 18, 19, 20, 21, 22, 23, 24, 25, 26, 27, 28, 29, 30, 31, 32, 33, 34, 35, 36, 37, 38, 39, 40]" complex_indices_1based="_JSON [1, 12, 13, 14, 15, 16, 17, 18, 19, 20, 21, 22, 23, 24, 25, 26, 27, 28, 29, 30, 31, 32, 33, 34, 35, 36, 37, 38, 39, 40, 41]" pbc="F F F"
Li      -0.91632250      -0.79146246      -0.31613955  F        0        1
C        4.46786781       3.78218135       0.62324756  T        1        2
C        3.80870156       4.85915615      -0.23501372  T        1        2