41
Properties=species:S:1:pos:R:3:is_solvent:L:1:group_label:I:1:tags:I:1 Coordinates=T from=T ORCA-job=T Li1EC4_r09_charge_1_spin_1_liquid_t_traj_2_frame_0000=T E=T -1378.044632820363=T solvent_indices_0based="_JSON [11, 12, 13, 14, 15, 16, 17, 18, 19, 20]" complex_indices_0based="_JSON [0, 1, 2, 3, 4, 5, 6, 7, 8, 9, 10, 21, 22, 23, 24, 25, 26, 27, 28, 29, 30, 31, 32, 33, 34, 35, 36, 37, 38, 39, 40]" complex_indices_1based="_JSON [1, 2, 3, 4, 5, 6, 7, 8, 9, 10, 11, 22, 23, 24, 25, 26, 27, 28, 29, 30, 31, 32, 33, 34, 35, 36, 37, 38, 39, 40, 41]" pbc="F F F"
Li       0.02797068       0.15912679       0.04790273  F        0        1
C        4.29439071      -0.83265631       2.62219264  F        0        1
C        4.16368332       0.63090861       2.19450161  F        0        1
O        2.91113539       0.64814479       1.48634110  F        0        1
C        2.53298087      -0.60294077       1.21813733  F        0        1
O        3.34401431      -1.50274522       1.77398042  F        0        1
O        1.57559649      -0.88973778       0.54837108  F        0        1
H        5.27917287      -1.25613642       2.43586842  F        0        1
H        4.00362394      -1.00121351       3.65985228  F        0        1
H        4.09526232       1.32414630       3.03034446  F        0        1
H        4.94915165       0.94741756       1.50700806  F        0        1
C       -2.47787350       3.65570087       2.75733787  T        1        2
C       -2.94612133       3.44252269       1.31718485  T        1        2
O       -2.29040906       2.21568412       0.94873159  T        1        2
C       -1.30512119       1.96485105       1.81402532  T        1        2
O       -1.31391233       2.81297258       2.84245341  T        1        2
O       -0.50531239       1.07535809       1.68669524  T        1        2
H       -2.17743798       4.67922961       2.97154714  T        1        2
H       -3.20214818       3.31426090       3.49824079  T        1        2
H       -4.02066436       3.30040181       1.22291264  T        1        2
H       -2.60845044       4.22688322       0.63835490  T        1        2
C       -2.00578206      -3.97396627       0.85946692  F        0        1
C       -2.22375285      -4.34624968      -0.60850011  F        0        1
O       -2.08964378      -3.08224573      -1.28445742  F        0        1
C       -1.52547521      -2.19755450      -0.46233708  F        0        1
O       -1.38141229      -2.68006936       0.77296464  F        0        1
O       -1.19194061      -1.09144932      -0.79855181  F        0        1
H       -2.93751721      -3.86703631       1.41648528  F        0        1
H       -1.33051762      -4.64688161       1.38390871  F        0        1
H       -1.45972844      -5.02208458      -0.99484571  F        0        1
H       -3.21501841      -4.74371107      -0.81632765  F        0        1
C        0.58219491       0.63381534      -4.50949280  F        0        1
C        0.35692580       2.14067920      -4.62025779  F        0        1
O       -0.03564995       2.49979926      -3.28174232  F        0        1
C        0.30351415       1.51685473      -2.44664355  F        0        1
O        0.77293906       0.44861151      -3.09447792  F        0        1
O        0.20191773       1.59069572      -1.25009290  F        0        1
H       -0.28740054       0.04993866      -4.81510305  F        0        1
H        1.47260637       0.28281774      -5.02654365  F        0        1
H        1.26556982       2.69123596      -4.86870697  F        0        1
H       -0.44668106       2.41530320      -5.30014381  F        0        1
41
Properties=species:S:1:pos:R:3:is_solvent:L:1:group_label:I:1:tags:I:1 Coordinates=T from=T ORCA-job=T Li1EC4_r09_charge_1_spin_1_liquid_t_traj_2_frame_0000=T E=T -1378.044632820363=T solvent_indices_0based="_JSON [11, 12, 13, 14, 15, 16, 17, 18, 19, 20]" complex_indices_0based="_JSON [0, 1, 2, 3, 4, 5, 6, 7, 8, 9, 10, 21, 22, 23, 24, 25, 26, 27, 28, 29, 30, 31, 32, 33, 34, 35, 36, 37, 38, 39, 40]" complex_indices_1based="_JSON [1, 2, 3, 4, 5, 6, 7, 8, 9, 10, 11, 22, 23, 24, 25, 26, 27, 28, 29, 30, 31, 32, 33, 34, 35, 36, 37, 38, 39, 40, 41]" pbc="F F F"
Li       0.02797100       0.15912700       0.04790300  F        0        1
C        4.29439100      -0.83265600       2.62219300  F        0        1
C        4.16368300       0.63090900       2.19450200  F        0        1
O        2.91113500       0.64814500       1.48634100  F        0        1
C        2.53298100      -0.60294100       1.21813700  F        0        1
O        3.34401400      -1.50274500       1.77398000  F        0        1
O        1.57559600      -0.88973800       0.54837100  F        0        1
H        5.27917300      -1.25613600       2.43586800  F        0        1
H        4.00362400      -1.00121400       3.65985200  F        0        1
H        4.09526200       1.32414600       3.03034400  F        0        1
H        4.94915200       0.94741800       1.50700800  F        0        1
C       -2.47787300       3.65570100       2.75733800  T        1        2
C       -2.94612100       3.44252300       1.31718500  T        1        2
O       -2.29040900       2.21568400       0.94873200  T        1        2
C       -1.30512100       1.96485100       1.81402500  T        1        2
O       -1.31391200       2.81297300       2.84245300  T        1        2
O       -0.50531200       1.07535800       1.68669500  T        1        2
H       -2.17743800       4.67923000       2.97154700  T        1        2
H       -3.20214800       3.31426100       3.49824100  T        1        2
H       -4.02066400       3.30040200       1.22291300  T        1        2
H       -2.60845000       4.22688300       0.63835500  T        1        2
C       -2.00578200      -3.97396600       0.85946700  F        0        1
C       -2.22375300      -4.34625000      -0.60850000  F        0        1
O       -2.08964400      -3.08224600      -1.28445700  F        0        1
C       -1.52547500      -2.19755500      -0.46233700  F        0        1
O       -1.38141200      -2.68006900       0.77296500  F        0        1
O       -1.19194100      -1.09144900      -0.79855200  F        0        1
H       -2.93751700      -3.86703600       1.41648500  F        0        1
H       -1.33051800      -4.64688200       1.38390900  F        0        1
H       -1.45972800      -5.02208500      -0.99484600  F        0        1
H       -3.21501800      -4.74371100      -0.81632800  F        0        1
C        0.58219500       0.63381500      -4.50949300  F        0        1
C        0.35692600       2.14067900      -4.62025800  F        0        1
O       -0.03565000       2.49979900      -3.28174200  F        0        1
C        0.30351400       1.51685500      -2.44664400  F        0        1
O        0.77293900       0.44861200      -3.09447800  F        0        1
O        0.20191800       1.59069600      -1.25009300  F        0        1
H       -0.28740100       0.04993900      -4.81510300  F        0        1
H        1.47260600       0.28281800      -5.02654400  F        0        1
H        1.26557000       2.69123600      -4.86870700  F        0        1
H       -0.44668100       2.41530300      -5.30014400  F        0        1
41
Properties=species:S:1:pos:R:3:is_solvent:L:1:group_label:I:1:tags:I:1 Coordinates=T from=T ORCA-job=T Li1EC4_r09_charge_1_spin_1_liquid_t_traj_2_frame_0001=T E=T -1378.038304686980=T solvent_indices_0based="_JSON [11, 12, 13, 14, 15, 16, 17, 18, 19, 20]" complex_indices_0based="_JSON [0, 1, 2, 3, 4, 5, 6, 7, 8, 9, 10, 21, 22, 23, 24, 25, 26, 27, 28, 29, 30, 31, 32, 33, 34, 35, 36, 37, 38, 39, 40]" complex_indices_1based="_JSON [1, 2, 3, 4, 5, 6, 7, 8, 9, 10, 11, 22, 23, 24, 25, 26, 27, 28, 29, 30, 31, 32, 33, 34, 35, 36, 37, 38, 39, 40, 41]" pbc="F F F"
Li       0.46422115      -0.03829380      -0.48920205  F        0        1
C        4.32229020      -0.89400414       2.66222467  F        0        1
C        4.35444016       0.51469484       2.06526118  F        0        1
O        3.20363548       0.52200102       1.20039290  F        0        1
C        2.77531590      -0.72691271       1.02129630  F        0        1
O        3.44227752      -1.60193401       1.76936018  F        0        1
O        1.88920796      -1.03315190       0.26514157  F        0        1
H        5.28965390      -1.39205275       2.65879711  F        0        1
H        3.88864977      -0.92434300       3.66258732  F        0        1
H        4.23535109       1.30593618       2.80246320  F        0        1
H        5.24021614       0.69983388       1.45614171  F        0        1
C       -3.09303500       2.69534915       2.49812841  T        1        2
C       -3.65479534       1.41762205       1.87803243  T        1        2
O       -2.48793958       0.58375720       1.76880320  T        1        2
C       -1.38440588       1.35828760       1.83632742  T        1        2
O       -1.69483627       2.61248588       2.17811651  T        1        2
O       -0.27519888       0.96578082       1.62181683  T        1        2
H       -3.49475448       3.60727223       2.06134435  T        1        2
H       -3.19782674       2.72232587       3.58418697  T        1        2
H       -4.38649916       0.91354897       2.50659447  T        1        2
H       -4.06200759       1.57300414       0.87733944  T        1        2
C       -2.36237980      -2.94307093       1.60417026  F        0        1
C       -3.53247831      -2.90622542       0.62205938  F        0        1
O       -3.15709270      -1.84502264      -0.27629346  F        0        1
C       -1.85646857      -1.59425600      -0.13335757  F        0        1
O       -1.31684937      -2.28325011       0.86954323  F        0        1
O       -1.24106488      -0.83616652      -0.83961836  F        0        1
H       -2.55163895      -2.36978332       2.51283444  F        0        1
H       -2.02812744      -3.94797158       1.85287268  F        0        1
H       -3.63387206      -3.82523256       0.04288078  F        0        1
H       -4.48397023      -2.64855670       1.08266303  F        0        1
C        1.34927358       1.37326033      -5.07561669  F        0        1
C        1.27279442       2.86374735      -4.74308861  F        0        1
O        0.79131622       2.86275158      -3.38530414  F        0        1
C        0.94153330       1.64651749      -2.86654634  F        0        1
O        1.35129573       0.75820085      -3.77253996  F        0        1
O        0.73206760       1.38294728      -1.71146650  F        0        1
H        0.47719765       1.01109319      -5.62170582  F        0        1
H        2.26176302       1.08595319      -5.59363580  F        0        1
H        2.24646985       3.35549498      -4.75887975  F        0        1
H        0.56510079       3.41523130      -5.35830723  F        0        1
41
Properties=species:S:1:pos:R:3:is_solvent:L:1:group_label:I:1:tags:I:1 Coordinates=T from=T ORCA-job=T Li1EC4_r09_charge_1_spin_1_liquid_t_traj_2_frame_0001=T E=T -1378.038304686980=T solvent_indices_0based="_JSON [11, 12, 13, 14, 15, 16, 17, 18, 19, 20]" complex_indices_0based="_JSON [0, 1, 2, 3, 4, 5, 6, 7, 8, 9, 10, 21, 22, 23, 24, 25, 26, 27, 28, 29, 30, 31, 32, 33, 34, 35, 36, 37, 38, 39, 40]" complex_indices_1based="_JSON [1, 2, 3, 4, 5, 6, 7, 8, 9, 10, 11, 22, 23, 24, 25, 26, 27, 28, 29, 30, 31, 32, 33, 34, 35, 36, 37, 38, 39, 40, 41]" pbc="F F F"
Li       0.46422100      -0.03829400      -0.48920200  F        0        1
C        4.32229000      -0.89400400       2.66222500  F        0        1
C        4.35444000       0.51469500       2.06526100  F        0        1
O        3.20363500       0.52200100       1.20039300  F        0        1
C        2.77531600      -0.72691300       1.02129600  F        0        1
O        3.44227800      -1.60193400       1.76936000  F        0        1
O        1.88920800      -1.03315200       0.26514200  F        0        1
H        5.28965400      -1.39205300       2.65879700  F        0        1
H        3.88865000      -0.92434300       3.66258700  F        0        1
H        4.23535100       1.30593600       2.80246300  F        0        1
H        5.24021600       0.69983400       1.45614200  F        0        1
C       -3.09303500       2.69534900       2.49812800  T        1        2
C       -3.65479500       1.41762200       1.87803200  T        1        2
O       -2.48794000       0.58375700       1.76880300  T        1        2
C       -1.38440600       1.35828800       1.83632700  T        1        2
O       -1.69483600       2.61248600       2.17811700  T        1        2
O       -0.27519900       0.96578100       1.62181700  T        1        2
H       -3.49475400       3.60727200       2.06134400  T        1        2
H       -3.19782700       2.72232600       3.58418700  T        1        2
H       -4.38649900       0.91354900       2.50659400  T        1        2
H       -4.06200800       1.57300400       0.87733900  T        1        2
C       -2.36238000      -2.94307100       1.60417000  F        0        1
C       -3.53247800      -2.90622500       0.62205900  F        0        1
O       -3.15709300      -1.84502300      -0.27629300  F        0        1
C       -1.85646900      -1.59425600      -0.13335800  F        0        1
O       -1.31684900      -2.28325000       0.86954300  F        0        1
O       -1.24106500      -0.83616700      -0.83961800  F        0        1
H       -2.55163900      -2.36978300       2.51283400  F        0        1
H       -2.02812700      -3.94797200       1.85287300  F        0        1
H       -3.63387200      -3.82523300       0.04288100  F        0        1
H       -4.48397000      -2.64855700       1.08266300  F        0        1
C        1.34927400       1.37326000      -5.07561700  F        0        1
C        1.27279400       2.86374700      -4.74308900  F        0        1
O        0.79131600       2.86275200      -3.38530400  F        0        1
C        0.94153300       1.64651700      -2.86654600  F        0        1
O        1.35129600       0.75820100      -3.77254000  F        0        1
O        0.73206800       1.38294700      -1.71146700  F        0        1
H        0.47719800       1.01109300      -5.62170600  F        0        1
H        2.26176300       1.08595300      -5.59363600  F        0        1
H        2.24647000       3.35549500      -4.75888000  F        0        1
H        0.56510100       3.41523100      -5.35830700  F        0        1
41
Properties=species:S:1:pos:R:3:is_solvent:L:1:group_label:I:1:tags:I:1 Coordinates=T from=T ORCA-job=T Li1EC4_r09_charge_1_spin_1_liquid_t_traj_2_frame_0002=T E=T -1378.035142933261=T solvent_indices_0based="_JSON [11, 12, 13, 14, 15, 16, 17, 18, 19, 20]" complex_indices_0based="_JSON [0, 1, 2, 3, 4, 5, 6, 7, 8, 9, 10, 21, 22, 23, 24, 25, 26, 27, 28, 29, 30, 31, 32, 33, 34, 35, 36, 37, 38, 39, 40]" complex_indices_1based="_JSON [1, 2, 3, 4, 5, 6, 7, 8, 9, 10, 11, 22, 23, 24, 25, 26, 27, 28, 29, 30, 31, 32, 33, 34, 35, 36, 37, 38, 39, 40, 41]" pbc="F F F"
Li       0.42656172      -0.13116374      -0.99615652  F        0        1
C        3.15832810      -0.31218584       2.95564658  F        0        1
C        3.43774365       0.97145778       2.16209755  F        0        1
O        2.85215283       0.70114722       0.87777036  F        0        1
C        2.39505642      -0.54688940       0.84109294  F        0        1
O        2.63714049      -1.21241234       1.96221261  F        0        1
O        1.83371550      -1.02301537      -0.11641486  F        0        1
H        4.05018855      -0.76120133       3.38876745  F        0        1
H        2.39302452      -0.17521183       3.71895571  F        0        1
H        2.94547251       1.84649752       2.58257519  F        0        1
H        4.49989210       1.16805383       2.01713925  F        0        1
C       -2.37353442       2.18644306       3.68994899  T        1        2
C       -3.18317260       1.55799458       2.55631995  T        1        2
O       -2.22883960       0.67884138       1.93626437  T        1        2
C       -0.98451904       1.03978468       2.30607088  T        1        2
O       -1.01597758       1.97101080       3.26851143  T        1        2
O        0.01454820       0.57990360       1.83893314  T        1        2
H       -2.53568679       3.25671956       3.79966948  T        1        2
H       -2.52097550       1.68564629       4.64831503  T        1        2
H       -4.02997325       0.96746572       2.90030046  T        1        2
H       -3.51331012       2.28730352       1.81494746  T        1        2
C       -2.46070927      -2.84321063       1.47208625  F        0        1
C       -3.71047291      -2.62449713       0.62027555  F        0        1
O       -3.30787625      -1.56039790      -0.26251899  F        0        1
C       -1.98157238      -1.45393208      -0.24059003  F        0        1
O       -1.42540743      -2.25122617       0.66861301  F        0        1
O       -1.36023998      -0.72444331      -0.97164724  F        0        1
H       -2.49670162      -2.31035184       2.42361551  F        0        1
H       -2.21514573      -3.89038261       1.63456004  F        0        1
H       -3.97226758      -3.49218253       0.01315002  F        0        1
H       -4.57667464      -2.29151439       1.18817795  F        0        1
C        1.54907606       1.24141530      -5.42997438  F        0        1
C        1.68917110       2.72826234      -5.09625682  F        0        1
O        1.14885500       2.81063819      -3.76259490  F        0        1
C        1.05911316       1.58944992      -3.24688784  F        0        1
O        1.35847664       0.64084529      -4.13389382  F        0        1
O        0.74335253       1.36608970      -2.10573607  F        0        1
H        0.67257623       1.02029506      -6.04008105  F        0        1
H        2.43970503       0.80956922      -5.88139563  F        0        1
H        2.72661376       3.06300692      -5.06367861  F        0        1
H        1.10527332       3.37943366      -5.74313989  F        0        1
41
Properties=species:S:1:pos:R:3:is_solvent:L:1:group_label:I:1:tags:I:1 Coordinates=T from=T ORCA-job=T Li1EC4_r09_charge_1_spin_1_liquid_t_traj_2_frame_0002=T E=T -1378.035142933261=T solvent_indices_0based="_JSON [11, 12, 13, 14, 15, 16, 17, 18, 19, 20]" complex_indices_0based="_JSON [0, 1, 2, 3, 4, 5, 6, 7, 8, 9, 10, 21, 22, 23, 24, 25, 26, 27, 28, 29, 30, 31, 32, 33, 34, 35, 36, 37, 38, 39, 40]" complex_indices_1based="_JSON [1, 2, 3, 4, 5, 6, 7, 8, 9, 10, 11, 22, 23, 24, 25, 26, 27, 28, 29, 30, 31, 32, 33, 34, 35, 36, 37, 38, 39, 40, 41]" pbc="F F F"
Li       0.42656200      -0.13116400      -0.99615700  F        0        1
C        3.15832800      -0.31218600       2.95564700  F        0        1
C        3.43774400       0.97145800       2.16209800  F        0        1
O        2.85215300       0.70114700       0.87777000  F        0        1
C        2.39505600      -0.54688900       0.84109300  F        0        1
O        2.63714000      -1.21241200       1.96221300  F        0        1
O        1.83371600      -1.02301500      -0.11641500  F        0        1
H        4.05018900      -0.76120100       3.38876700  F        0        1
H        2.39302500      -0.17521200       3.71895600  F        0        1
H        2.94547300       1.84649800       2.58257500  F        0        1
H        4.49989200       1.16805400       2.01713900  F        0        1
C       -2.37353400       2.18644300       3.68994900  T        1        2
C       -3.18317300       1.55799500       2.55632000  T        1        2
O       -2.22884000       0.67884100       1.93626400  T        1        2
C       -0.98451900       1.03978500       2.30607100  T        1        2
O       -1.01597800       1.97101100       3.26851100  T        1        2
O        0.01454800       0.57990400       1.83893300  T        1        2
H       -2.53568700       3.25672000       3.79966900  T        1        2
H       -2.52097600       1.68564600       4.64831500  T        1        2
H       -4.02997300       0.96746600       2.90030000  T        1        2
H       -3.51331000       2.28730400       1.81494700  T        1        2
C       -2.46070900      -2.84321100       1.47208600  F        0        1
C       -3.71047300      -2.62449700       0.62027600  F        0        1
O       -3.30787600      -1.56039800      -0.26251900  F        0        1
C       -1.98157200      -1.45393200      -0.24059000  F        0        1
O       -1.42540700      -2.25122600       0.66861300  F        0        1
O       -1.36024000      -0.72444300      -0.97164700  F        0        1
H       -2.49670200      -2.31035200       2.42361600  F        0        1
H       -2.21514600      -3.89038300       1.63456000  F        0        1
H       -3.97226800      -3.49218300       0.01315000  F        0        1
H       -4.57667500      -2.29151400       1.18817800  F        0        1
C        1.54907600       1.24141500      -5.42997400  F        0        1
C        1.68917100       2.72826200      -5.09625700  F        0        1
O        1.14885500       2.81063800      -3.76259500  F        0        1
C        1.05911300       1.58945000      -3.24688800  F        0        1
O        1.35847700       0.64084500      -4.13389400  F        0        1
O        0.74335300       1.36609000      -2.10573600  F        0        1
H        0.67257600       1.02029500      -6.04008100  F        0        1
H        2.43970500       0.80956900      -5.88139600  F        0        1
H        2.72661400       3.06300700      -5.06367900  F        0        1
H        1.10527300       3.37943400      -5.74314000  F        0        1
41
Properties=species:S:1:pos:R:3:is_solvent:L:1:group_label:I:1:tags:I:1 Coordinates=T from=T ORCA-job=T Li1EC4_r09_charge_1_spin_1_liquid_t_traj_2_frame_0003=T E=T -1378.037467046222=T solvent_indices_0based="_JSON [11, 12, 13, 14, 15, 16, 17, 18, 19, 20]" complex_indices_0based="_JSON [0, 1, 2, 3, 4, 5, 6, 7, 8, 9, 10, 21, 22, 23, 24, 25, 26, 27, 28, 29, 30, 31, 32, 33, 34, 35, 36, 37, 38, 39, 40]" complex_indices_1based="_JSON [1, 2, 3, 4, 5, 6, 7, 8, 9, 10, 11, 22, 23, 24, 25, 26, 27, 28, 29, 30, 31, 32, 33, 34, 35, 36, 37, 38, 39, 40, 41]" pbc="F F F"
Li       0.68847829       0.36976676      -1.21541263  F        0        1
C        2.72682700       0.38706322       3.37596498  F        0        1
C        2.28308304       1.75478028       2.84759034  F        0        1
O        2.04776295       1.49933326       1.45152350  F        0        1
C        2.01824296       0.18546098       1.23873051  F        0        1
O        2.35855090      -0.51249701       2.31508637  F        0        1
O        1.73412429      -0.31192419       0.17788828  F        0        1
H        3.80453979       0.31352885       3.52542361  F        0        1
H        2.20153251       0.08196014       4.27893830  F        0        1
H        1.34954192       2.09807934       3.29132053  F        0        1
H        3.05101066       2.52149858       2.93006620  F        0        1
C       -2.06513000       1.30052720       4.88399114  T        1        2
C       -3.31347638       0.93439185       4.08330464  T        1        2
O       -2.77043173       0.25030017       2.94097194  T        1        2
C       -1.46113329       0.53007657       2.82928776  T        1        2
O       -1.01989166       1.21830798       3.89821558  T        1        2
O       -0.77269447       0.20683709       1.90761966  T        1        2
H       -2.08568660       2.31235854       5.28376314  T        1        2
H       -1.84489207       0.58704741       5.67972314  T        1        2
H       -3.98369522       0.25656480       4.60802167  T        1        2
H       -3.86430643       1.80804666       3.73142255  T        1        2
C       -2.41552736      -2.45876143       0.55961318  F        0        1
C       -3.65231195      -1.59222871       0.32266885  F        0        1
O       -3.09608875      -0.39624177      -0.25736198  F        0        1
C       -1.84977141      -0.63873245      -0.64286683  F        0        1
O       -1.44602236      -1.86462940      -0.32066189  F        0        1
O       -1.16704758       0.15597239      -1.24260495  F        0        1
H       -2.03565864      -2.38658212       1.57905642  F        0        1
H       -2.54878335      -3.50067648       0.27638268  F        0        1
H       -4.34857505      -2.02662311      -0.39601618  F        0        1
H       -4.16995722      -1.31609237       1.23766954  F        0        1
C        1.53923722       0.65324663      -6.02134389  F        0        1
C        2.43303956       1.88732601      -5.88487263  F        0        1
O        2.24716288       2.26642580      -4.50685904  F        0        1
C        1.68017774       1.26285260      -3.84620912  F        0        1
O        1.32423119       0.26211289      -4.65053442  F        0        1
O        1.51101750       1.26003953      -2.65353695  F        0        1
H        0.56880965       0.87537340      -6.46683777  F        0        1
H        2.01248537      -0.17487398      -6.54450341  F        0        1
H        3.49080962       1.66908673      -6.03660136  F        0        1
H        2.12754778       2.72074141      -6.51373828  F        0        1
41
Properties=species:S:1:pos:R:3:is_solvent:L:1:group_label:I:1:tags:I:1 Coordinates=T from=T ORCA-job=T Li1EC4_r09_charge_1_spin_1_liquid_t_traj_2_frame_0003=T E=T -1378.037467046222=T solvent_indices_0based="_JSON [11, 12, 13, 14, 15, 16, 17, 18, 19, 20]" complex_indices_0based="_JSON [0, 1, 2, 3, 4, 5, 6, 7, 8, 9, 10, 21, 22, 23, 24, 25, 26, 27, 28, 29, 30, 31, 32, 33, 34, 35, 36, 37, 38, 39, 40]" complex_indices_1based="_JSON [1, 2, 3, 4, 5, 6, 7, 8, 9, 10, 11, 22, 23, 24, 25, 26, 27, 28, 29, 30, 31, 32, 33, 34, 35, 36, 37, 38, 39, 40, 41]" pbc="F F F"
Li       0.68847800       0.36976700      -1.21541300  F        0        1
C        2.72682700       0.38706300       3.37596500  F        0        1
C        2.28308300       1.75478000       2.84759000  F        0        1
O        2.04776300       1.49933300       1.45152300  F        0        1
C        2.01824300       0.18546100       1.23873100  F        0        1
O        2.35855100      -0.51249700       2.31508600  F        0        1
O        1.73412400      -0.31192400       0.17788800  F        0        1
H        3.80454000       0.31352900       3.52542400  F        0        1
H        2.20153300       0.08196000       4.27893800  F        0        1
H        1.34954200       2.09807900       3.29132100  F        0        1
H        3.05101100       2.52149900       2.93006600  F        0        1
C       -2.06513000       1.30052700       4.88399100  T        1        2
C       -3.31347600       0.93439200       4.08330500  T        1        2
O       -2.77043200       0.25030000       2.94097200  T        1        2
C       -1.46113300       0.53007700       2.82928800  T        1        2
O       -1.01989200       1.21830800       3.89821600  T        1        2
O       -0.77269400       0.20683700       1.90762000  T        1        2
H       -2.08568700       2.31235900       5.28376300  T        1        2
H       -1.84489200       0.58704700       5.67972300  T        1        2
H       -3.98369500       0.25656500       4.60802200  T        1        2
H       -3.86430600       1.80804700       3.73142300  T        1        2
C       -2.41552700      -2.45876100       0.55961300  F        0        1
C       -3.65231200      -1.59222900       0.32266900  F        0        1
O       -3.09608900      -0.39624200      -0.25736200  F        0        1
C       -1.84977100      -0.63873200      -0.64286700  F        0        1
O       -1.44602200      -1.86462900      -0.32066200  F        0        1
O       -1.16704800       0.15597200      -1.24260500  F        0        1
H       -2.03565900      -2.38658200       1.57905600  F        0        1
H       -2.54878300      -3.50067600       0.27638300  F        0        1
H       -4.34857500      -2.02662300      -0.39601600  F        0        1
H       -4.16995700      -1.31609200       1.23767000  F        0        1
C        1.53923700       0.65324700      -6.02134400  F        0        1
C        2.43304000       1.88732600      -5.88487300  F        0        1
O        2.24716300       2.26642600      -4.50685900  F        0        1
C        1.68017800       1.26285300      -3.84620900  F        0        1
O        1.32423100       0.26211300      -4.65053400  F        0        1
O        1.51101700       1.26004000      -2.65353700  F        0        1
H        0.56881000       0.87537300      -6.46683800  F        0        1
H        2.01248500      -0.17487400      -6.54450300  F        0        1
H        3.49081000       1.66908700      -6.03660100  F        0        1
H        2.12754800       2.72074100      -6.51373800  F        0        1
41
Properties=species:S:1:pos:R:3:is_solvent:L:1:group_label:I:1:tags:I:1 Coordinates=T from=T ORCA-job=T Li1EC4_r09_charge_1_spin_1_liquid_t_traj_2_frame_0004=T E=T -1377.837212042838=T solvent_indices_0based="_JSON [11, 12, 13, 14, 15, 16, 17, 18, 19, 20]" complex_indices_0based="_JSON [0, 1, 2, 3, 4, 5, 6, 7, 8, 9, 10, 21, 22, 23, 24, 25, 26, 27, 28, 29, 30, 31, 32, 33, 34, 35, 36, 37, 38, 39, 40]" complex_indices_1based="_JSON [1, 2, 3, 4, 5, 6, 7, 8, 9, 10, 11, 22, 23, 24, 25, 26, 27, 28, 29, 30, 31, 32, 33, 34, 35, 36, 37, 38, 39, 40, 41]" pbc="F F F"
Li       0.45145755       0.92878086      -2.18749369  F        0        1
C        1.33572420       1.49718060       2.66289356  F        0        1
C        1.44160832       0.03548618       2.20914978  F        0        1
O        1.44165670       0.12281328       0.76363299  F        0        1