41
Properties=species:S:1:pos:R:3:is_solvent:L:1:group_label:I:1:tags:I:1 Coordinates=T from=T ORCA-job=T Li1EC4_r10_charge_1_spin_1_liquid_t_traj_3_frame_0000=T E=T -1378.043701120154=T solvent_indices_0based="_JSON [21, 22, 23, 24, 25, 26, 27, 28, 29, 30]" complex_indices_0based="_JSON [0, 1, 2, 3, 4, 5, 6, 7, 8, 9, 10, 11, 12, 13, 14, 15, 16, 17, 18, 19, 20, 31, 32, 33, 34, 35, 36, 37, 38, 39, 40]" complex_indices_1based="_JSON [1, 2, 3, 4, 5, 6, 7, 8, 9, 10, 11, 12, 13, 14, 15, 16, 17, 18, 19, 20, 21, 32, 33, 34, 35, 36, 37, 38, 39, 40, 41]" pbc="F F F"
Li       0.56745035       0.22849311       0.55711455  F        0        1
C        5.31343154      -0.94975016      -1.00751273  F        0        1
C        5.13312351       0.52515717      -0.64682791  F        0        1
O        3.78428843       0.56810348      -0.14619797  F        0        1
C        3.14282459      -0.54560556      -0.51320554  F        0        1
O        3.95752267      -1.42305178      -1.09716046  F        0        1
O        1.96893226      -0.73661439      -0.34025256  F        0        1
H        5.79860720      -1.11005210      -1.96801555  F        0        1
H        5.82347355      -1.51977542      -0.22949146  F        0        1
H        5.80410713       0.86791054       0.13813918  F        0        1
H        5.19806073       1.18576147      -1.51279947  F        0        1
C       -0.53759946      -4.24565762       1.43921614  F        0        1
C       -2.05220039      -4.11577752       1.27456368  F        0        1
O       -2.20161442      -2.78609169       0.74386070  F        0        1
C       -1.07138986      -2.10623191       0.93240208  F        0        1
O       -0.09898969      -2.87489204       1.42696378  F        0        1
O       -0.94856933      -0.93493981       0.68707080  F        0        1
H       -0.23691686      -4.69598205       2.38291978  F        0        1
H       -0.06057167      -4.76402464       0.60611927  F        0        1
H       -2.47768145      -4.82042410       0.56313482  F        0        1
H       -2.59070219      -4.16780915       2.22204121  F        0        1
C       -2.04444912       4.46523725      -0.56861524  T        1        2
C       -2.78638995       3.42782002       0.27386769  T        1        2
O       -1.92960006       2.27664430       0.18299762  T        1        2
C       -0.72882040       2.65272740      -0.25722453  T        1        2
O       -0.70382580       3.94119277      -0.60697852  T        1        2
O        0.22279680       1.92152852      -0.33205066  T        1        2
H       -2.41685575       4.52888787      -1.59211527  T        1        2
H       -2.01585535       5.45616867      -0.12011033  T        1        2
H       -2.86917104       3.71038225       1.32463725  T        1        2
H       -3.76505007       3.16212809      -0.12022003  T        1        2
C        2.36367814       3.68461119       3.90912821  F        0        1
C        1.20440043       4.21710414       3.06770926  F        0        1
O        0.59499694       3.01132449       2.57050377  F        0        1
C        1.45923866       1.99443353       2.70343342  F        0        1
O        2.54157204       2.35319838       3.39490653  F        0        1
O        1.27991062       0.89405825       2.26048348  F        0        1
H        3.29176437       4.23548075       3.77159576  F        0        1
H        2.12326345       3.61349722       4.97096063  F        0        1
H        0.46353288       4.76675394       3.64487148  F        0        1
H        1.53525389       4.80986841       2.21314415  F        0        1
41
Properties=species:S:1:pos:R:3:is_solvent:L:1:group_label:I:1:tags:I:1 Coordinates=T from=T ORCA-job=T Li1EC4_r10_charge_1_spin_1_liquid_t_traj_3_frame_0000=T E=T -1378.043701120154=T solvent_indices_0based="_JSON [21, 22, 23, 24, 25, 26, 27, 28, 29, 30]" complex_indices_0based="_JSON [0, 1, 2, 3, 4, 5, 6, 7, 8, 9, 10, 11, 12, 13, 14, 15, 16, 17, 18, 19, 20, 31, 32, 33, 34, 35, 36, 37, 38, 39, 40]" complex_indices_1based="_JSON [1, 2, 3, 4, 5, 6, 7, 8, 9, 10, 11, 12, 13, 14, 15, 16, 17, 18, 19, 20, 21, 32, 33, 34, 35, 36, 37, 38, 39, 40, 41]" pbc="F F F"
Li       0.56745000       0.22849300       0.55711500  F        0        1
C        5.31343200      -0.94975000      -1.00751300  F        0        1
C        5.13312400       0.52515700      -0.64682800  F        0        1
O        3.78428800       0.56810300      -0.14619800  F        0        1
C        3.14282500      -0.54560600      -0.51320600  F        0        1
O        3.95752300      -1.42305200      -1.09716000  F        0        1
O        1.96893200      -0.73661400      -0.34025300  F        0        1
H        5.79860700      -1.11005200      -1.96801600  F        0        1
H        5.82347400      -1.51977500      -0.22949100  F        0        1
H        5.80410700       0.86791100       0.13813900  F        0        1
H        5.19806100       1.18576100      -1.51279900  F        0        1
C       -0.53759900      -4.24565800       1.43921600  F        0        1
C       -2.05220000      -4.11577800       1.27456400  F        0        1
O       -2.20161400      -2.78609200       0.74386100  F        0        1
C       -1.07139000      -2.10623200       0.93240200  F        0        1
O       -0.09899000      -2.87489200       1.42696400  F        0        1
O       -0.94856900      -0.93494000       0.68707100  F        0        1
H       -0.23691700      -4.69598200       2.38292000  F        0        1
H       -0.06057200      -4.76402500       0.60611900  F        0        1
H       -2.47768100      -4.82042400       0.56313500  F        0        1
H       -2.59070200      -4.16780900       2.22204100  F        0        1
C       -2.04444900       4.46523700      -0.56861500  T        1        2
C       -2.78639000       3.42782000       0.27386800  T        1        2
O       -1.92960000       2.27664400       0.18299800  T        1        2
C       -0.72882000       2.65272700      -0.25722500  T        1        2
O       -0.70382600       3.94119300      -0.60697900  T        1        2
O        0.22279700       1.92152900      -0.33205100  T        1        2
H       -2.41685600       4.52888800      -1.59211500  T        1        2
H       -2.01585500       5.45616900      -0.12011000  T        1        2
H       -2.86917100       3.71038200       1.32463700  T        1        2
H       -3.76505000       3.16212800      -0.12022000  T        1        2
C        2.36367800       3.68461100       3.90912800  F        0        1
C        1.20440000       4.21710400       3.06770900  F        0        1
O        0.59499700       3.01132400       2.57050400  F        0        1
C        1.45923900       1.99443400       2.70343300  F        0        1
O        2.54157200       2.35319800       3.39490700  F        0        1
O        1.27991100       0.89405800       2.26048300  F        0        1
H        3.29176400       4.23548100       3.77159600  F        0        1
H        2.12326300       3.61349700       4.97096100  F        0        1
H        0.46353300       4.76675400       3.64487100  F        0        1
H        1.53525400       4.80986800       2.21314400  F        0        1
41
Properties=species:S:1:pos:R:3:is_solvent:L:1:group_label:I:1:tags:I:1 Coordinates=T from=T ORCA-job=T Li1EC4_r10_charge_1_spin_1_liquid_t_traj_3_frame_0001=T E=T -1378.040560292303=T solvent_indices_0based="_JSON [21, 22, 23, 24, 25, 26, 27, 28, 29, 30]" complex_indices_0based="_JSON [0, 1, 2, 3, 4, 5, 6, 7, 8, 9, 10, 11, 12, 13, 14, 15, 16, 17, 18, 19, 20, 31, 32, 33, 34, 35, 36, 37, 38, 39, 40]" complex_indices_1based="_JSON [1, 2, 3, 4, 5, 6, 7, 8, 9, 10, 11, 12, 13, 14, 15, 16, 17, 18, 19, 20, 21, 32, 33, 34, 35, 36, 37, 38, 39, 40, 41]" pbc="F F F"
Li       1.36449204       0.32844589       0.98079097  F        0        1
C        5.44108632      -0.82623521      -1.82568642  F        0        1
C        5.46136652       0.57722485      -1.21751022  F        0        1
O        4.28167040       0.58252891      -0.39024497  F        0        1
C        3.50307471      -0.44286696      -0.72722843  F        0        1
O        4.07759549      -1.24511083      -1.61737575  F        0        1
O        2.39859644      -0.62778355      -0.27821450  F        0        1
H        5.64609602      -0.84492528      -2.89388164  F        0        1
H        6.09452835      -1.52761578      -1.30540135  F        0        1
H        6.32549438       0.76747408      -0.58462161  F        0        1
H        5.35778793       1.36818082      -1.96131949  F        0        1
C       -1.37513765      -3.33831293       1.61385301  F        0        1
C       -2.73312693      -2.65959336       1.42892510  F        0        1
O       -2.37237577      -1.35665399       0.92446358  F        0        1
C       -1.07651888      -1.14580126       1.14509301  F        0        1
O       -0.46326930      -2.22152839       1.62973089  F        0        1
O       -0.52553124      -0.09542247       0.92778212  F        0        1
H       -1.27797164      -3.87485935       2.55504036  F        0        1
H       -1.10249385      -3.98660083       0.78029387  F        0        1
H       -3.37063186      -3.14797518       0.69520630  F        0        1
H       -3.27398418      -2.52264819       2.36607776  F        0        1
C       -2.35019149       3.40122359      -0.25917354  T        1        2
C       -2.03800924       2.26223335      -1.22654828  T        1        2
O       -0.60630898       2.16666489      -1.14313216  T        1        2
C       -0.19722934       2.73999289      -0.00767004  T        1        2
O       -1.18789992       3.41593374       0.59004664  T        1        2
O        0.92059105       2.66574551       0.42501574  T        1        2
H       -2.42798456       4.37166062      -0.75238823  T        1        2
H       -3.22794191       3.22241230       0.35841642  T        1        2
H       -2.46132749       1.30911629      -0.90460250  T        1        2
H       -2.31200035       2.47291373      -2.25803963  T        1        2
C        2.02738334       4.03905603       4.02264293  F        0        1
C        0.55489598       3.72079887       3.76746856  F        0        1
O        0.59041400       2.31801686       3.44399915  F        0        1
C        1.83362228       1.98886550       3.09424749  F        0        1
O        2.70417727       2.95682825       3.35488807  F        0        1
O        2.13543708       0.92675285       2.60638104  F        0        1
H        2.35562733       4.97534608       3.57660210  F        0        1
H        2.29719439       4.00876597       5.07931725  F        0        1
H       -0.08098666       3.85722335       4.63959926  F        0        1
H        0.14688517       4.25219022       2.90706456  F        0        1
41
Properties=species:S:1:pos:R:3:is_solvent:L:1:group_label:I:1:tags:I:1 Coordinates=T from=T ORCA-job=T Li1EC4_r10_charge_1_spin_1_liquid_t_traj_3_frame_0001=T E=T -1378.040560292303=T solvent_indices_0based="_JSON [21, 22, 23, 24, 25, 26, 27, 28, 29, 30]" complex_indices_0based="_JSON [0, 1, 2, 3, 4, 5, 6, 7, 8, 9, 10, 11, 12, 13, 14, 15, 16, 17, 18, 19, 20, 31, 32, 33, 34, 35, 36, 37, 38, 39, 40]" complex_indices_1based="_JSON [1, 2, 3, 4, 5, 6, 7, 8, 9, 10, 11, 12, 13, 14, 15, 16, 17, 18, 19, 20, 21, 32, 33, 34, 35, 36, 37, 38, 39, 40, 41]" pbc="F F F"
Li       1.36449200       0.32844600       0.98079100  F        0        1
C        5.44108600      -0.82623500      -1.82568600  F        0        1
C        5.46136700       0.57722500      -1.21751000  F        0        1
O        4.28167000       0.58252900      -0.39024500  F        0        1
C        3.50307500      -0.44286700      -0.72722800  F        0        1
O        4.07759500      -1.24511100      -1.61737600  F        0        1
O        2.39859600      -0.62778400      -0.27821400  F        0        1
H        5.64609600      -0.84492500      -2.89388200  F        0        1
H        6.09452800      -1.52761600      -1.30540100  F        0        1
H        6.32549400       0.76747400      -0.58462200  F        0        1
H        5.35778800       1.36818100      -1.96131900  F        0        1
C       -1.37513800      -3.33831300       1.61385300  F        0        1
C       -2.73312700      -2.65959300       1.42892500  F        0        1
O       -2.37237600      -1.35665400       0.92446400  F        0        1
C       -1.07651900      -1.14580100       1.14509300  F        0        1
O       -0.46326900      -2.22152800       1.62973100  F        0        1
O       -0.52553100      -0.09542200       0.92778200  F        0        1
H       -1.27797200      -3.87485900       2.55504000  F        0        1
H       -1.10249400      -3.98660100       0.78029400  F        0        1
H       -3.37063200      -3.14797500       0.69520600  F        0        1
H       -3.27398400      -2.52264800       2.36607800  F        0        1
C       -2.35019100       3.40122400      -0.25917400  T        1        2
C       -2.03800900       2.26223300      -1.22654800  T        1        2
O       -0.60630900       2.16666500      -1.14313200  T        1        2
C       -0.19722900       2.73999300      -0.00767000  T        1        2
O       -1.18790000       3.41593400       0.59004700  T        1        2
O        0.92059100       2.66574600       0.42501600  T        1        2
H       -2.42798500       4.37166100      -0.75238800  T        1        2
H       -3.22794200       3.22241200       0.35841600  T        1        2
H       -2.46132700       1.30911600      -0.90460200  T        1        2
H       -2.31200000       2.47291400      -2.25804000  T        1        2
C        2.02738300       4.03905600       4.02264300  F        0        1
C        0.55489600       3.72079900       3.76746900  F        0        1
O        0.59041400       2.31801700       3.44399900  F        0        1
C        1.83362200       1.98886500       3.09424700  F        0        1
O        2.70417700       2.95682800       3.35488800  F        0        1
O        2.13543700       0.92675300       2.60638100  F        0        1
H        2.35562700       4.97534600       3.57660200  F        0        1
H        2.29719400       4.00876600       5.07931700  F        0        1
H       -0.08098700       3.85722300       4.63959900  F        0        1
H        0.14688500       4.25219000       2.90706500  F        0        1
41
Properties=species:S:1:pos:R:3:is_solvent:L:1:group_label:I:1:tags:I:1 Coordinates=T from=T ORCA-job=T Li1EC4_r10_charge_1_spin_1_liquid_t_traj_3_frame_0002=T E=T -1378.044233856127=T solvent_indices_0based="_JSON [21, 22, 23, 24, 25, 26, 27, 28, 29, 30]" complex_indices_0based="_JSON [0, 1, 2, 3, 4, 5, 6, 7, 8, 9, 10, 11, 12, 13, 14, 15, 16, 17, 18, 19, 20, 31, 32, 33, 34, 35, 36, 37, 38, 39, 40]" complex_indices_1based="_JSON [1, 2, 3, 4, 5, 6, 7, 8, 9, 10, 11, 12, 13, 14, 15, 16, 17, 18, 19, 20, 21, 32, 33, 34, 35, 36, 37, 38, 39, 40, 41]" pbc="F F F"
Li       0.45824487       0.29150959       0.82801072  F        0        1
C        4.60149799       0.36567166      -1.87701376  F        0        1
C        4.78007939       0.91229640      -0.46185822  F        0        1
O        3.71363111       0.26973857       0.25871836  F        0        1
C        2.80223345      -0.15557439      -0.61396514  F        0        1
O        3.23059447      -0.08072339      -1.86909239  F        0        1
O        1.71413972      -0.57542597      -0.30328990  F        0        1
H        4.71062765       1.11778796      -2.65526414  F        0        1
H        5.23733232      -0.49464283      -2.09076000  F        0        1
H        5.72572872       0.63580098      -0.00045071  F        0        1
H        4.62477179       1.99029382      -0.40472597  F        0        1
C       -1.21244849      -4.01361484       1.40687457  F        0        1
C       -2.70356200      -3.69285203       1.29358110  F        0        1
O       -2.70193954      -2.30757596       0.89285937  F        0        1
C       -1.49682724      -1.78966271       1.10942203  F        0        1
O       -0.61360764      -2.70576024       1.49932069  F        0        1
O       -1.23646881      -0.61991584       0.97009322  F        0        1
H       -0.95150223      -4.57498743       2.30133851  F        0        1
H       -0.81227627      -4.50857492       0.52119239  F        0        1
H       -3.21955792      -4.27002096       0.52943676  F        0        1
H       -3.23180170      -3.77055301       2.24465302  F        0        1
C       -1.29178125       3.80909937      -0.89441847  T        1        2
C       -1.55055592       2.44552814      -0.25634134  T        1        2
O       -0.25061361       1.83170460      -0.32783747  T        1        2
C        0.69344745       2.78940229      -0.49110089  T        1        2
O        0.13350641       3.97089846      -0.74761040  T        1        2
O        1.86296549       2.56836454      -0.39866344  T        1        2
H       -1.52919416       3.83319192      -1.95886878  T        1        2
H       -1.78527291       4.63170986      -0.38146223  T        1        2
H       -1.84158106       2.51232175       0.79241022  T        1        2
H       -2.25518655       1.82530518      -0.80482439  T        1        2
C        1.95168706       4.00863705       4.07699089  F        0        1
C        1.14601531       4.54726752       2.89671901  F        0        1
O        0.53850897       3.35246070       2.36509203  F        0        1
C        1.21615221       2.28491469       2.81363651  F        0        1
O        2.10356934       2.61485924       3.74375995  F        0        1
O        1.03291894       1.16582068       2.41650139  F        0        1
H        2.94186900       4.44862463       4.17075589  F        0        1
H        1.41678591       4.07607728       5.02537820  F        0        1
H        0.35543462       5.23760234       3.18146849  F        0        1
H        1.77064835       4.98452568       2.11614217  F        0        1
41
Properties=species:S:1:pos:R:3:is_solvent:L:1:group_label:I:1:tags:I:1 Coordinates=T from=T ORCA-job=T Li1EC4_r10_charge_1_spin_1_liquid_t_traj_3_frame_0002=T E=T -1378.044233856127=T solvent_indices_0based="_JSON [21, 22, 23, 24, 25, 26, 27, 28, 29, 30]" complex_indices_0based="_JSON [0, 1, 2, 3, 4, 5, 6, 7, 8, 9, 10, 11, 12, 13, 14, 15, 16, 17, 18, 19, 20, 31, 32, 33, 34, 35, 36, 37, 38, 39, 40]" complex_indices_1based="_JSON [1, 2, 3, 4, 5, 6, 7, 8, 9, 10, 11, 12, 13, 14, 15, 16, 17, 18, 19, 20, 21, 32, 33, 34, 35, 36, 37, 38, 39, 40, 41]" pbc="F F F"
Li       0.45824500       0.29151000       0.82801100  F        0        1
C        4.60149800       0.36567200      -1.87701400  F        0        1
C        4.78007900       0.91229600      -0.46185800  F        0        1
O        3.71363100       0.26973900       0.25871800  F        0        1
C        2.80223300      -0.15557400      -0.61396500  F        0        1
O        3.23059400      -0.08072300      -1.86909200  F        0        1
O        1.71414000      -0.57542600      -0.30329000  F        0        1
H        4.71062800       1.11778800      -2.65526400  F        0        1
H        5.23733200      -0.49464300      -2.09076000  F        0        1
H        5.72572900       0.63580100      -0.00045100  F        0        1
H        4.62477200       1.99029400      -0.40472600  F        0        1
C       -1.21244800      -4.01361500       1.40687500  F        0        1
C       -2.70356200      -3.69285200       1.29358100  F        0        1
O       -2.70194000      -2.30757600       0.89285900  F        0        1
C       -1.49682700      -1.78966300       1.10942200  F        0        1
O       -0.61360800      -2.70576000       1.49932100  F        0        1
O       -1.23646900      -0.61991600       0.97009300  F        0        1
H       -0.95150200      -4.57498700       2.30133900  F        0        1
H       -0.81227600      -4.50857500       0.52119200  F        0        1
H       -3.21955800      -4.27002100       0.52943700  F        0        1
H       -3.23180200      -3.77055300       2.24465300  F        0        1
C       -1.29178100       3.80909900      -0.89441800  T        1        2
C       -1.55055600       2.44552800      -0.25634100  T        1        2
O       -0.25061400       1.83170500      -0.32783700  T        1        2
C        0.69344700       2.78940200      -0.49110100  T        1        2
O        0.13350600       3.97089800      -0.74761000  T        1        2
O        1.86296500       2.56836500      -0.39866300  T        1        2
H       -1.52919400       3.83319200      -1.95886900  T        1        2
H       -1.78527300       4.63171000      -0.38146200  T        1        2
H       -1.84158100       2.51232200       0.79241000  T        1        2
H       -2.25518700       1.82530500      -0.80482400  T        1        2
C        1.95168700       4.00863700       4.07699100  F        0        1
C        1.14601500       4.54726800       2.89671900  F        0        1
O        0.53850900       3.35246100       2.36509200  F        0        1
C        1.21615200       2.28491500       2.81363700  F        0        1
O        2.10356900       2.61485900       3.74376000  F        0        1
O        1.03291900       1.16582100       2.41650100  F        0        1
H        2.94186900       4.44862500       4.17075600  F        0        1
H        1.41678600       4.07607700       5.02537800  F        0        1
H        0.35543500       5.23760200       3.18146800  F        0        1
H        1.77064800       4.98452600       2.11614200  F        0        1
41
Properties=species:S:1:pos:R:3:is_solvent:L:1:group_label:I:1:tags:I:1 Coordinates=T from=T ORCA-job=T Li1EC4_r10_charge_1_spin_1_liquid_t_traj_3_frame_0003=T E=T -1378.034571030568=T solvent_indices_0based="_JSON [21, 22, 23, 24, 25, 26, 27, 28, 29, 30]" complex_indices_0based="_JSON [0, 1, 2, 3, 4, 5, 6, 7, 8, 9, 10, 11, 12, 13, 14, 15, 16, 17, 18, 19, 20, 31, 32, 33, 34, 35, 36, 37, 38, 39, 40]" complex_indices_1based="_JSON [1, 2, 3, 4, 5, 6, 7, 8, 9, 10, 11, 12, 13, 14, 15, 16, 17, 18, 19, 20, 21, 32, 33, 34, 35, 36, 37, 38, 39, 40, 41]" pbc="F F F"
Li       0.46323630      -0.29142074       1.36054743  F        0        1
C        4.08163070       0.73860466      -1.96517818  F        0        1
C        4.40512195       1.40695012      -0.62321079  F        0        1
O        3.58998362       0.67869289       0.31285873  F        0        1
C        2.73035140      -0.08908945      -0.35022216  F        0        1
O        2.96659520      -0.11415921      -1.65383825  F        0        1
O        1.84646447      -0.72162399       0.17791287  F        0        1
H        3.76333554       1.44791842      -2.72683191  F        0        1
H        4.89172943       0.11542748      -2.34391359  F        0        1
H        5.44609837       1.29857338      -0.32391427  F        0        1
H        4.09910006       2.45138988      -0.59035833  F        0        1
C       -1.10907992      -4.75020476       1.47524729  F        0        1
C       -2.59978217      -4.40722961       1.46885304  F        0        1
O       -2.59955640      -2.98506995       1.22949872  F        0        1
C       -1.38046706      -2.50425002       1.44248594  F        0        1
O       -0.48891459      -3.46419199       1.67906772  F        0        1
O       -1.11390597      -1.32764537       1.42709406  F        0        1
H       -0.81362413      -5.40627516       2.29107010  F        0        1
H       -0.75675972      -5.14881843       0.52323877  F        0        1
H       -3.15672296      -4.88843606       0.66791564  F        0        1
H       -3.08548883      -4.58876878       2.42828226  F        0        1
C       -0.65040624       4.89559081      -1.60075854  T        1        2
C       -1.61444824       3.91192641      -0.93933719  T        1        2
O       -0.79760152       2.74456910      -0.75350415  T        1        2
C        0.49695545       3.07874141      -0.87490673  T        1        2
O        0.63792346       4.35954199      -1.25312664  T        1        2
O        1.40491886       2.32951558      -0.66407555  T        1        2
H       -0.73710687       4.90762986      -2.68858813  T        1        2
H       -0.72116516       5.90888022      -1.21035678  T        1        2
H       -1.95995658       4.24779253       0.03981657  T        1        2
H       -2.46498474       3.64521210      -1.56340921  T        1        2
C        1.85543622       3.87544655       4.23775238  F        0        1
C        1.30484382       4.44347996       2.93003907  F        0        1
O        0.65984017       3.30073209       2.33430643  F        0        1
C        1.09436670       2.19025597       2.93448621  F        0        1
O        1.86171818       2.45705450       3.98812016  F        0        1
O        0.82145695       1.07731502       2.57472733  F        0        1
H        2.87300981       4.18970580       4.45922795  F        0        1
H        1.20723097       4.06745203       5.09379917  F        0        1
H        0.56175191       5.22515112       3.07355925  F        0        1
H        2.08620268       4.78503260       2.24933155  F        0        1
41
Properties=species:S:1:pos:R:3:is_solvent:L:1:group_label:I:1:tags:I:1 Coordinates=T from=T ORCA-job=T Li1EC4_r10_charge_1_spin_1_liquid_t_traj_3_frame_0003=T E=T -1378.034571030568=T solvent_indices_0based="_JSON [21, 22, 23, 24, 25, 26, 27, 28, 29, 30]" complex_indices_0based="_JSON [0, 1, 2, 3, 4, 5, 6, 7, 8, 9, 10, 11, 12, 13, 14, 15, 16, 17, 18, 19, 20, 31, 32, 33, 34, 35, 36, 37, 38, 39, 40]" complex_indices_1based="_JSON [1, 2, 3, 4, 5, 6, 7, 8, 9, 10, 11, 12, 13, 14, 15, 16, 17, 18, 19, 20, 21, 32, 33, 34, 35, 36, 37, 38, 39, 40, 41]" pbc="F F F"
Li       0.46323600      -0.29142100       1.36054700  F        0        1
C        4.08163100       0.73860500      -1.96517800  F        0        1
C        4.40512200       1.40695000      -0.62321100  F        0        1
O        3.58998400       0.67869300       0.31285900  F        0        1
C        2.73035100      -0.08908900      -0.35022200  F        0        1
O        2.96659500      -0.11415900      -1.65383800  F        0        1
O        1.84646400      -0.72162400       0.17791300  F        0        1
H        3.76333600       1.44791800      -2.72683200  F        0        1
H        4.89172900       0.11542700      -2.34391400  F        0        1
H        5.44609800       1.29857300      -0.32391400  F        0        1
H        4.09910000       2.45139000      -0.59035800  F        0        1
C       -1.10908000      -4.75020500       1.47524700  F        0        1
C       -2.59978200      -4.40723000       1.46885300  F        0        1
O       -2.59955600      -2.98507000       1.22949900  F        0        1
C       -1.38046700      -2.50425000       1.44248600  F        0        1
O       -0.48891500      -3.46419200       1.67906800  F        0        1
O       -1.11390600      -1.32764500       1.42709400  F        0        1
H       -0.81362400      -5.40627500       2.29107000  F        0        1
H       -0.75676000      -5.14881800       0.52323900  F        0        1
H       -3.15672300      -4.88843600       0.66791600  F        0        1
H       -3.08548900      -4.58876900       2.42828200  F        0        1
C       -0.65040600       4.89559100      -1.60075900  T        1        2
C       -1.61444800       3.91192600      -0.93933700  T        1        2
O       -0.79760200       2.74456900      -0.75350400  T        1        2
C        0.49695500       3.07874100      -0.87490700  T        1        2
O        0.63792300       4.35954200      -1.25312700  T        1        2
O        1.40491900       2.32951600      -0.66407600  T        1        2
H       -0.73710700       4.90763000      -2.68858800  T        1        2
H       -0.72116500       5.90888000      -1.21035700  T        1        2
H       -1.95995700       4.24779300       0.03981700  T        1        2
H       -2.46498500       3.64521200      -1.56340900  T        1        2
C        1.85543600       3.87544700       4.23775200  F        0        1
C        1.30484400       4.44348000       2.93003900  F        0        1
O        0.65984000       3.30073200       2.33430600  F        0        1
C        1.09436700       2.19025600       2.93448600  F        0        1
O        1.86171800       2.45705400       3.98812000  F        0        1
O        0.82145700       1.07731500       2.57472700  F        0        1
H        2.87301000       4.18970600       4.45922800  F        0        1
H        1.20723100       4.06745200       5.09379900  F        0        1
H        0.56175200       5.22515100       3.07355900  F        0        1
H        2.08620300       4.78503300       2.24933200  F        0        1
41
Properties=species:S:1:pos:R:3:is_solvent:L:1:group_label:I:1:tags:I:1 Coordinates=T from=T ORCA-job=T Li1EC4_r10_charge_1_spin_1_liquid_t_traj_3_frame_0004=T E=T -1378.032959355638=T solvent_indices_0based="_JSON [21, 22, 23, 24, 25, 26, 27, 28, 29, 30]" complex_indices_0based="_JSON [0, 1, 2, 3, 4, 5, 6, 7, 8, 9, 10, 11, 12, 13, 14, 15, 16, 17, 18, 19, 20, 31, 32, 33, 34, 35, 36, 37, 38, 39, 40]" complex_indices_1based="_JSON [1, 2, 3, 4, 5, 6, 7, 8, 9, 10, 11, 12, 13, 14, 15, 16, 17, 18, 19, 20, 21, 32, 33, 34, 35, 36, 37, 38, 39, 40, 41]" pbc="F F F"
Li       0.72518874      -0.37555673       1.27879208  F        0        1
C        3.85487854       1.56801005      -2.17409441  F        0        1
C        3.96258083       2.28575016      -0.82136710  F        0        1
O        3.24213205       1.42230379       0.07602451  F        0        1