41
Properties=species:S:1:pos:R:3:is_solvent:L:1:group_label:I:1:tags:I:1 Coordinates=T from=T ORCA-job=T Li1EC4_r05_charge_1_spin_1_liquid_t_traj_3_frame_0000=T E=T -1378.044227397342=T solvent_indices_0based="_JSON [21, 22, 23, 24, 25, 26, 27, 28, 29, 30]" complex_indices_0based="_JSON [0, 1, 2, 3, 4, 5, 6, 7, 8, 9, 10, 11, 12, 13, 14, 15, 16, 17, 18, 19, 20, 31, 32, 33, 34, 35, 36, 37, 38, 39, 40]" complex_indices_1based="_JSON [1, 2, 3, 4, 5, 6, 7, 8, 9, 10, 11, 12, 13, 14, 15, 16, 17, 18, 19, 20, 21, 32, 33, 34, 35, 36, 37, 38, 39, 40, 41]" pbc="F F F"
Li      -0.25746631      -0.47938339       0.90994245  F        0        1
C        4.18694644       0.19057630      -0.04112425  F        0        1
C        4.18392614       1.71390875      -0.16649374  F        0        1
O        2.78485674       2.03827756      -0.05923380  F        0        1
C        2.12711289       0.99151323       0.43974572  F        0        1
O        2.91319878      -0.07787449       0.57329411  F        0        1
O        0.96122579       1.01504820       0.73813099  F        0        1
H        4.21280325      -0.31663625      -1.00668237  F        0        1
H        4.97032527      -0.19493566       0.60785396  F        0        1
H        4.71297891       2.21096724       0.64791966  F        0        1
H        4.54790639       2.07493292      -1.12604588  F        0        1
C       -1.55555501      -4.51848235      -1.13162499  F        0        1
C       -0.83456502      -4.29708099      -2.46121323  F        0        1
O        0.07208226      -3.22128736      -2.15681359  F        0        1
C       -0.30694179      -2.63254844      -1.02142825  F        0        1
O       -1.30660618      -3.28839254      -0.42646006  F        0        1
O        0.19723395      -1.63111836      -0.58798630  F        0        1
H       -2.63128902      -4.64494288      -1.23433009  F        0        1
H       -1.13362023      -5.33805571      -0.54807777  F        0        1
H       -0.25220072      -5.15406599      -2.79292388  F        0        1
H       -1.50291402      -3.96565451      -3.25725151  F        0        1
C       -2.78300316       3.40991675       1.40178480  T        1        2
C       -3.99899244       2.99525230       0.57398904  T        1        2
O       -3.59296759       1.72657551       0.02823178  T        1        2
C       -2.53724364       1.27167978       0.70528981  T        1        2
O       -2.09099433       2.16305363       1.59387703  T        1        2
O       -2.05160788       0.18512972       0.53382084  T        1        2
H       -2.11802410       4.09108443       0.86867115  T        1        2
H       -3.03498634       3.81859420       2.37806597  T        1        2
H       -4.89421895       2.83653552       1.17713382  T        1        2
H       -4.21774155       3.67020997      -0.25075611  T        1        2
C       -1.95554118      -0.80808987       5.40666739  F        0        1
C       -1.23496261      -2.11260480       5.74683895  F        0        1
O       -0.30478304      -2.25523144       4.65833564  F        0        1
C       -0.66098997      -1.44549809       3.66067825  F        0        1
O       -1.67652289      -0.64568322       4.00378165  F        0        1
O       -0.12853147      -1.43952374       2.58401710  F        0        1
H       -3.03431293      -0.85680602       5.54001473  F        0        1
H       -1.54920682       0.05360967       5.93844933  F        0        1
H       -0.67203688      -2.07166851       6.67696284  F        0        1
H       -1.89721388      -2.97953487       5.74657319  F        0        1
41
Properties=species:S:1:pos:R:3:is_solvent:L:1:group_label:I:1:tags:I:1 Coordinates=T from=T ORCA-job=T Li1EC4_r05_charge_1_spin_1_liquid_t_traj_3_frame_0000=T E=T -1378.044227397342=T solvent_indices_0based="_JSON [21, 22, 23, 24, 25, 26, 27, 28, 29, 30]" complex_indices_0based="_JSON [0, 1, 2, 3, 4, 5, 6, 7, 8, 9, 10, 11, 12, 13, 14, 15, 16, 17, 18, 19, 20, 31, 32, 33, 34, 35, 36, 37, 38, 39, 40]" complex_indices_1based="_JSON [1, 2, 3, 4, 5, 6, 7, 8, 9, 10, 11, 12, 13, 14, 15, 16, 17, 18, 19, 20, 21, 32, 33, 34, 35, 36, 37, 38, 39, 40, 41]" pbc="F F F"
Li      -0.25746600      -0.47938300       0.90994200  F        0        1
C        4.18694600       0.19057600      -0.04112400  F        0        1
C        4.18392600       1.71390900      -0.16649400  F        0        1
O        2.78485700       2.03827800      -0.05923400  F        0        1
C        2.12711300       0.99151300       0.43974600  F        0        1
O        2.91319900      -0.07787400       0.57329400  F        0        1
O        0.96122600       1.01504800       0.73813100  F        0        1
H        4.21280300      -0.31663600      -1.00668200  F        0        1
H        4.97032500      -0.19493600       0.60785400  F        0        1
H        4.71297900       2.21096700       0.64792000  F        0        1
H        4.54790600       2.07493300      -1.12604600  F        0        1
C       -1.55555500      -4.51848200      -1.13162500  F        0        1
C       -0.83456500      -4.29708100      -2.46121300  F        0        1
O        0.07208200      -3.22128700      -2.15681400  F        0        1
C       -0.30694200      -2.63254800      -1.02142800  F        0        1
O       -1.30660600      -3.28839300      -0.42646000  F        0        1
O        0.19723400      -1.63111800      -0.58798600  F        0        1
H       -2.63128900      -4.64494300      -1.23433000  F        0        1
H       -1.13362000      -5.33805600      -0.54807800  F        0        1
H       -0.25220100      -5.15406600      -2.79292400  F        0        1
H       -1.50291400      -3.96565500      -3.25725200  F        0        1
C       -2.78300300       3.40991700       1.40178500  T        1        2
C       -3.99899200       2.99525200       0.57398900  T        1        2
O       -3.59296800       1.72657600       0.02823200  T        1        2
C       -2.53724400       1.27168000       0.70529000  T        1        2
O       -2.09099400       2.16305400       1.59387700  T        1        2
O       -2.05160800       0.18513000       0.53382100  T        1        2
H       -2.11802400       4.09108400       0.86867100  T        1        2
H       -3.03498600       3.81859400       2.37806600  T        1        2
H       -4.89421900       2.83653600       1.17713400  T        1        2
H       -4.21774200       3.67021000      -0.25075600  T        1        2
C       -1.95554100      -0.80809000       5.40666700  F        0        1
C       -1.23496300      -2.11260500       5.74683900  F        0        1
O       -0.30478300      -2.25523100       4.65833600  F        0        1
C       -0.66099000      -1.44549800       3.66067800  F        0        1
O       -1.67652300      -0.64568300       4.00378200  F        0        1
O       -0.12853100      -1.43952400       2.58401700  F        0        1
H       -3.03431300      -0.85680600       5.54001500  F        0        1
H       -1.54920700       0.05361000       5.93844900  F        0        1
H       -0.67203700      -2.07166900       6.67696300  F        0        1
H       -1.89721400      -2.97953500       5.74657300  F        0        1
41
Properties=species:S:1:pos:R:3:is_solvent:L:1:group_label:I:1:tags:I:1 Coordinates=T from=T ORCA-job=T Li1EC4_r05_charge_1_spin_1_liquid_t_traj_3_frame_0001=T E=T -1378.040958167657=T solvent_indices_0based="_JSON [21, 22, 23, 24, 25, 26, 27, 28, 29, 30]" complex_indices_0based="_JSON [0, 1, 2, 3, 4, 5, 6, 7, 8, 9, 10, 11, 12, 13, 14, 15, 16, 17, 18, 19, 20, 31, 32, 33, 34, 35, 36, 37, 38, 39, 40]" complex_indices_1based="_JSON [1, 2, 3, 4, 5, 6, 7, 8, 9, 10, 11, 12, 13, 14, 15, 16, 17, 18, 19, 20, 21, 32, 33, 34, 35, 36, 37, 38, 39, 40, 41]" pbc="F F F"
Li      -0.08857327      -0.61352502       2.25818182  F        0        1
C        3.33345751       0.23905204      -0.68021804  F        0        1
C        2.77551663       1.51694527      -1.30615016  F        0        1
O        1.50833914       1.67071958      -0.63317226  F        0        1
C        1.49777569       0.89965107       0.45341789  F        0        1
O        2.57669911       0.13306115       0.54117444  F        0        1
O        0.60629689       0.91304477       1.26746288  F        0        1
H        3.13455981      -0.65192541      -1.27681511  F        0        1
H        4.38926831       0.29875447      -0.42611115  F        0        1
H        3.38342761       2.39738043      -1.09397743  F        0        1
H        2.58955554       1.43696159      -2.37495882  F        0        1
C       -1.25911695      -3.30289291      -1.54500173  F        0        1
C       -0.72141723      -1.93504215      -1.96603503  F        0        1
O        0.18944190      -1.61299608      -0.89606784  F        0        1
C       -0.11317003      -2.37053867       0.16692158  F        0        1
O       -0.95784817      -3.34426722      -0.13748653  F        0        1
O        0.34782945      -2.18985416       1.26550985  F        0        1
H       -2.33586344      -3.39939733      -1.66602160  F        0        1
H       -0.74738997      -4.13684138      -2.02701379  F        0        1
H       -0.16385236      -1.95245590      -2.90025630  F        0        1
H       -1.49348658      -1.16612793      -1.99059960  F        0        1
C       -2.04787219       2.93191757       0.82006570  T        1        2
C       -2.07937373       2.59761966      -0.67207199  T        1        2
O       -1.92305516       1.16680317      -0.68318925  T        1        2
C       -2.10714036       0.68836239       0.55403113  T        1        2
O       -2.32556318       1.66301219       1.43652820  T        1        2
O       -2.07440474      -0.48172521       0.82956000  T        1        2
H       -1.06524124       3.26273742       1.15733637  T        1        2
H       -2.81479997       3.63987653       1.12691193  T        1        2
H       -3.03048044       2.84306483      -1.14651326  T        1        2
H       -1.25416899       3.03683038      -1.22920117  T        1        2
C       -2.69163957      -2.76907047       5.54280273  F        0        1
C       -2.16796383      -1.95699305       6.72745764  F        0        1
O       -1.45278134      -0.88316138       6.08419877  F        0        1
C       -1.23116793      -1.20499771       4.81470939  F        0        1
O       -1.84349711      -2.33274454       4.46173340  F        0        1
O       -0.54990134      -0.54546004       4.06872652  F        0        1
H       -2.57364515      -3.84406145       5.65966284  F        0        1
H       -3.72334072      -2.52875033       5.28249305  F        0        1
H       -2.95216402      -1.52534056       7.34544366  F        0        1
H       -1.46206544      -2.51122834       7.34742650  F        0        1
41
Properties=species:S:1:pos:R:3:is_solvent:L:1:group_label:I:1:tags:I:1 Coordinates=T from=T ORCA-job=T Li1EC4_r05_charge_1_spin_1_liquid_t_traj_3_frame_0001=T E=T -1378.040958167657=T solvent_indices_0based="_JSON [21, 22, 23, 24, 25, 26, 27, 28, 29, 30]" complex_indices_0based="_JSON [0, 1, 2, 3, 4, 5, 6, 7, 8, 9, 10, 11, 12, 13, 14, 15, 16, 17, 18, 19, 20, 31, 32, 33, 34, 35, 36, 37, 38, 39, 40]" complex_indices_1based="_JSON [1, 2, 3, 4, 5, 6, 7, 8, 9, 10, 11, 12, 13, 14, 15, 16, 17, 18, 19, 20, 21, 32, 33, 34, 35, 36, 37, 38, 39, 40, 41]" pbc="F F F"
Li      -0.08857300      -0.61352500       2.25818200  F        0        1
C        3.33345800       0.23905200      -0.68021800  F        0        1
C        2.77551700       1.51694500      -1.30615000  F        0        1
O        1.50833900       1.67072000      -0.63317200  F        0        1
C        1.49777600       0.89965100       0.45341800  F        0        1
O        2.57669900       0.13306100       0.54117400  F        0        1
O        0.60629700       0.91304500       1.26746300  F        0        1
H        3.13456000      -0.65192500      -1.27681500  F        0        1
H        4.38926800       0.29875400      -0.42611100  F        0        1
H        3.38342800       2.39738000      -1.09397700  F        0        1
H        2.58955600       1.43696200      -2.37495900  F        0        1
C       -1.25911700      -3.30289300      -1.54500200  F        0        1
C       -0.72141700      -1.93504200      -1.96603500  F        0        1
O        0.18944200      -1.61299600      -0.89606800  F        0        1
C       -0.11317000      -2.37053900       0.16692200  F        0        1
O       -0.95784800      -3.34426700      -0.13748700  F        0        1
O        0.34782900      -2.18985400       1.26551000  F        0        1
H       -2.33586300      -3.39939700      -1.66602200  F        0        1
H       -0.74739000      -4.13684100      -2.02701400  F        0        1
H       -0.16385200      -1.95245600      -2.90025600  F        0        1
H       -1.49348700      -1.16612800      -1.99060000  F        0        1
C       -2.04787200       2.93191800       0.82006600  T        1        2
C       -2.07937400       2.59762000      -0.67207200  T        1        2
O       -1.92305500       1.16680300      -0.68318900  T        1        2
C       -2.10714000       0.68836200       0.55403100  T        1        2
O       -2.32556300       1.66301200       1.43652800  T        1        2
O       -2.07440500      -0.48172500       0.82956000  T        1        2
H       -1.06524100       3.26273700       1.15733600  T        1        2
H       -2.81480000       3.63987700       1.12691200  T        1        2
H       -3.03048000       2.84306500      -1.14651300  T        1        2
H       -1.25416900       3.03683000      -1.22920100  T        1        2
C       -2.69164000      -2.76907000       5.54280300  F        0        1
C       -2.16796400      -1.95699300       6.72745800  F        0        1
O       -1.45278100      -0.88316100       6.08419900  F        0        1
C       -1.23116800      -1.20499800       4.81470900  F        0        1
O       -1.84349700      -2.33274500       4.46173300  F        0        1
O       -0.54990100      -0.54546000       4.06872700  F        0        1
H       -2.57364500      -3.84406100       5.65966300  F        0        1
H       -3.72334100      -2.52875000       5.28249300  F        0        1
H       -2.95216400      -1.52534100       7.34544400  F        0        1
H       -1.46206500      -2.51122800       7.34742700  F        0        1
41
Properties=species:S:1:pos:R:3:is_solvent:L:1:group_label:I:1:tags:I:1 Coordinates=T from=T ORCA-job=T Li1EC4_r05_charge_1_spin_1_liquid_t_traj_3_frame_0002=T E=T -1378.039200113472=T solvent_indices_0based="_JSON [21, 22, 23, 24, 25, 26, 27, 28, 29, 30]" complex_indices_0based="_JSON [0, 1, 2, 3, 4, 5, 6, 7, 8, 9, 10, 11, 12, 13, 14, 15, 16, 17, 18, 19, 20, 31, 32, 33, 34, 35, 36, 37, 38, 39, 40]" complex_indices_1based="_JSON [1, 2, 3, 4, 5, 6, 7, 8, 9, 10, 11, 12, 13, 14, 15, 16, 17, 18, 19, 20, 21, 32, 33, 34, 35, 36, 37, 38, 39, 40, 41]" pbc="F F F"
Li       0.48768887      -0.93368222       2.31750109  F        0        1
C        3.22756044       0.28334955      -1.08539700  F        0        1
C        2.54398514       1.58671955      -1.49955470  F        0        1
O        1.38781506       1.62595763      -0.63549447  F        0        1
C        1.55664196       0.75635329       0.35482210  F        0        1
O        2.65701448       0.02995870       0.21410293  F        0        1
O        0.79402068       0.65200812       1.28756860  F        0        1
H        2.97433649      -0.55752653      -1.73197330  F        0        1
H        4.30635823       0.36730977      -0.97622498  F        0        1
H        3.14908799       2.47136350      -1.29800946  F        0        1
H        2.20062900       1.59343894      -2.53168738  F        0        1
C       -1.13620879      -3.58880505      -1.46299199  F        0        1
C       -0.67846853      -2.19210195      -1.88951293  F        0        1
O        0.28628675      -1.85100028      -0.87314679  F        0        1
C        0.10052855      -2.65357711       0.18132583  F        0        1
O       -0.70543650      -3.66492636      -0.09185405  F        0        1
O        0.62808452      -2.47994196       1.25244887  F        0        1
H       -2.21686905      -3.71144640      -1.48750170  F        0        1
H       -0.65138404      -4.39311408      -2.01733336  F        0        1
H       -0.18016887      -2.17167638      -2.85660305  F        0        1
H       -1.48060896      -1.45602510      -1.84699605  F        0        1
C       -1.96183270       2.26863411       1.90305787  T        1        2
C       -2.06783595       2.45481267       0.38612046  T        1        2
O       -1.96364582       1.11186567      -0.11894479  T        1        2
C       -2.05577890       0.23892664       0.88783784  T        1        2
O       -2.19057393       0.85904893       2.07094141  T        1        2
O       -2.02003700      -0.95233862       0.76421750  T        1        2
H       -0.96855051       2.49687666       2.28852030  T        1        2
H       -2.72220460       2.81144682       2.46140333  T        1        2
H       -3.02707456       2.86608528       0.06878904  T        1        2
H       -1.25060868       3.03997814      -0.03114593  T        1        2
C       -3.36342111      -1.71460773       4.71208535  F        0        1
C       -3.11536598      -0.69192309       5.82095051  F        0        1
O       -1.89328925      -0.05500925       5.39539166  F        0        1
C       -1.31022411      -0.81177394       4.47237237  F        0        1
O       -2.06159264      -1.84486969       4.11092363  F        0        1
O       -0.21493536      -0.58655585       4.01634213  F        0        1
H       -3.67518902      -2.69098159       5.07633467  F        0        1
H       -4.05408826      -1.35839666       3.94676699  F        0        1
H       -3.88985296       0.06784706       5.90014491  F        0        1
H       -2.93798252      -1.15067287       6.79456860  F        0        1
41
Properties=species:S:1:pos:R:3:is_solvent:L:1:group_label:I:1:tags:I:1 Coordinates=T from=T ORCA-job=T Li1EC4_r05_charge_1_spin_1_liquid_t_traj_3_frame_0002=T E=T -1378.039200113472=T solvent_indices_0based="_JSON [21, 22, 23, 24, 25, 26, 27, 28, 29, 30]" complex_indices_0based="_JSON [0, 1, 2, 3, 4, 5, 6, 7, 8, 9, 10, 11, 12, 13, 14, 15, 16, 17, 18, 19, 20, 31, 32, 33, 34, 35, 36, 37, 38, 39, 40]" complex_indices_1based="_JSON [1, 2, 3, 4, 5, 6, 7, 8, 9, 10, 11, 12, 13, 14, 15, 16, 17, 18, 19, 20, 21, 32, 33, 34, 35, 36, 37, 38, 39, 40, 41]" pbc="F F F"
Li       0.48768900      -0.93368200       2.31750100  F        0        1
C        3.22756000       0.28335000      -1.08539700  F        0        1
C        2.54398500       1.58672000      -1.49955500  F        0        1
O        1.38781500       1.62595800      -0.63549400  F        0        1
C        1.55664200       0.75635300       0.35482200  F        0        1
O        2.65701400       0.02995900       0.21410300  F        0        1
O        0.79402100       0.65200800       1.28756900  F        0        1
H        2.97433600      -0.55752700      -1.73197300  F        0        1
H        4.30635800       0.36731000      -0.97622500  F        0        1
H        3.14908800       2.47136300      -1.29800900  F        0        1
H        2.20062900       1.59343900      -2.53168700  F        0        1
C       -1.13620900      -3.58880500      -1.46299200  F        0        1
C       -0.67846900      -2.19210200      -1.88951300  F        0        1
O        0.28628700      -1.85100000      -0.87314700  F        0        1
C        0.10052900      -2.65357700       0.18132600  F        0        1
O       -0.70543600      -3.66492600      -0.09185400  F        0        1
O        0.62808500      -2.47994200       1.25244900  F        0        1
H       -2.21686900      -3.71144600      -1.48750200  F        0        1
H       -0.65138400      -4.39311400      -2.01733300  F        0        1
H       -0.18016900      -2.17167600      -2.85660300  F        0        1
H       -1.48060900      -1.45602500      -1.84699600  F        0        1
C       -1.96183300       2.26863400       1.90305800  T        1        2
C       -2.06783600       2.45481300       0.38612000  T        1        2
O       -1.96364600       1.11186600      -0.11894500  T        1        2
C       -2.05577900       0.23892700       0.88783800  T        1        2
O       -2.19057400       0.85904900       2.07094100  T        1        2
O       -2.02003700      -0.95233900       0.76421800  T        1        2
H       -0.96855100       2.49687700       2.28852000  T        1        2
H       -2.72220500       2.81144700       2.46140300  T        1        2
H       -3.02707500       2.86608500       0.06878900  T        1        2
H       -1.25060900       3.03997800      -0.03114600  T        1        2
C       -3.36342100      -1.71460800       4.71208500  F        0        1
C       -3.11536600      -0.69192300       5.82095100  F        0        1
O       -1.89328900      -0.05500900       5.39539200  F        0        1
C       -1.31022400      -0.81177400       4.47237200  F        0        1
O       -2.06159300      -1.84487000       4.11092400  F        0        1
O       -0.21493500      -0.58655600       4.01634200  F        0        1
H       -3.67518900      -2.69098200       5.07633500  F        0        1
H       -4.05408800      -1.35839700       3.94676700  F        0        1
H       -3.88985300       0.06784700       5.90014500  F        0        1
H       -2.93798300      -1.15067300       6.79456900  F        0        1
41
Properties=species:S:1:pos:R:3:is_solvent:L:1:group_label:I:1:tags:I:1 Coordinates=T from=T ORCA-job=T Li1EC4_r05_charge_1_spin_1_liquid_t_traj_3_frame_0003=T E=T -1378.037529633009=T solvent_indices_0based="_JSON [21, 22, 23, 24, 25, 26, 27, 28, 29, 30]" complex_indices_0based="_JSON [0, 1, 2, 3, 4, 5, 6, 7, 8, 9, 10, 11, 12, 13, 14, 15, 16, 17, 18, 19, 20, 31, 32, 33, 34, 35, 36, 37, 38, 39, 40]" complex_indices_1based="_JSON [1, 2, 3, 4, 5, 6, 7, 8, 9, 10, 11, 12, 13, 14, 15, 16, 17, 18, 19, 20, 21, 32, 33, 34, 35, 36, 37, 38, 39, 40, 41]" pbc="F F F"
Li       0.73306801       0.14528570       0.85869675  F        0        1
C        5.48372420      -0.09924585      -0.35645782  F        0        1
C        5.68288588       1.40923886      -0.19600402  F        0        1
O        4.33464694       1.89591823      -0.06043996  F        0        1
C        3.52294041       0.87805560       0.20682913  F        0        1
O        4.14499333      -0.29814378       0.13863840  F        0        1
O        2.35776517       1.00749321       0.48127741  F        0        1
H        5.51324697      -0.42701451      -1.39688015  F        0        1
H        6.16547273      -0.69707172       0.24514192  F        0        1
H        6.23255497       1.67544919       0.70760529  F        0        1
H        6.13363712       1.88633770      -1.06291493  F        0        1
C       -2.19220301      -3.23145556      -0.43955892  F        0        1
C       -2.77744907      -2.48034009      -1.63882873  F        0        1
O       -2.03982793      -1.24569329      -1.63693243  F        0        1
C       -1.01980417      -1.34027389      -0.79609530  F        0        1
O       -0.97344157      -2.51559980      -0.17532784  F        0        1
O       -0.20876660      -0.46091903      -0.63194804  F        0        1
H       -2.82117293      -3.15969234       0.44892533  F        0        1
H       -1.94228519      -4.26919444      -0.65199274  F        0        1
H       -2.59989477      -2.98053475      -2.59089343  F        0        1
H       -3.83416586      -2.24382282      -1.52777184  F        0        1
C       -4.80195176       2.05619001       1.59019476  T        1        2
C       -5.24778870       1.32622179       0.32225604  T        1        2
O       -4.21189831       0.34458028       0.13589190  T        1        2
C       -3.47879350       0.24321511       1.25116307  T        1        2
O       -3.85704057       1.14046611       2.17241978  T        1        2
O       -2.59887177      -0.55718627       1.41214617  T        1        2
H       -4.28676272       2.99431963       1.38377120  T        1        2
H       -5.60596126       2.22136885       2.30375534  T        1        2
H       -6.19837372       0.80399705       0.44220447  T        1        2
H       -5.28126053       1.96386421      -0.55862473  T        1        2
C       -2.03730921      -1.70160408       4.47218850  F        0        1
C       -2.14741837      -0.29583807       5.06286613  F        0        1
O       -1.33270266       0.48725639       4.17280918  F        0        1
C       -0.60160152      -0.32422925       3.41628012  F        0        1
O       -0.86200887      -1.60741919       3.64771971  F        0        1
O        0.22724681       0.06696187       2.63312478  F        0        1
H       -1.87609663      -2.48018269       5.21545583  F        0        1
H       -2.87991621      -1.95411107       3.82814433  F        0        1
H       -3.15776990       0.10793965       5.04314594  F        0        1
H       -1.72720937      -0.21892754       6.06745636  F        0        1
41
Properties=species:S:1:pos:R:3:is_solvent:L:1:group_label:I:1:tags:I:1 Coordinates=T from=T ORCA-job=T Li1EC4_r05_charge_1_spin_1_liquid_t_traj_3_frame_0003=T E=T -1378.037529633009=T solvent_indices_0based="_JSON [21, 22, 23, 24, 25, 26, 27, 28, 29, 30]" complex_indices_0based="_JSON [0, 1, 2, 3, 4, 5, 6, 7, 8, 9, 10, 11, 12, 13, 14, 15, 16, 17, 18, 19, 20, 31, 32, 33, 34, 35, 36, 37, 38, 39, 40]" complex_indices_1based="_JSON [1, 2, 3, 4, 5, 6, 7, 8, 9, 10, 11, 12, 13, 14, 15, 16, 17, 18, 19, 20, 21, 32, 33, 34, 35, 36, 37, 38, 39, 40, 41]" pbc="F F F"
Li       0.73306800       0.14528600       0.85869700  F        0        1
C        5.48372400      -0.09924600      -0.35645800  F        0        1
C        5.68288600       1.40923900      -0.19600400  F        0        1
O        4.33464700       1.89591800      -0.06044000  F        0        1
C        3.52294000       0.87805600       0.20682900  F        0        1
O        4.14499300      -0.29814400       0.13863800  F        0        1
O        2.35776500       1.00749300       0.48127700  F        0        1
H        5.51324700      -0.42701500      -1.39688000  F        0        1
H        6.16547300      -0.69707200       0.24514200  F        0        1
H        6.23255500       1.67544900       0.70760500  F        0        1
H        6.13363700       1.88633800      -1.06291500  F        0        1
C       -2.19220300      -3.23145600      -0.43955900  F        0        1
C       -2.77744900      -2.48034000      -1.63882900  F        0        1
O       -2.03982800      -1.24569300      -1.63693200  F        0        1
C       -1.01980400      -1.34027400      -0.79609500  F        0        1
O       -0.97344200      -2.51560000      -0.17532800  F        0        1
O       -0.20876700      -0.46091900      -0.63194800  F        0        1
H       -2.82117300      -3.15969200       0.44892500  F        0        1
H       -1.94228500      -4.26919400      -0.65199300  F        0        1
H       -2.59989500      -2.98053500      -2.59089300  F        0        1
H       -3.83416600      -2.24382300      -1.52777200  F        0        1
C       -4.80195200       2.05619000       1.59019500  T        1        2
C       -5.24778900       1.32622200       0.32225600  T        1        2
O       -4.21189800       0.34458000       0.13589200  T        1        2
C       -3.47879400       0.24321500       1.25116300  T        1        2
O       -3.85704100       1.14046600       2.17242000  T        1        2
O       -2.59887200      -0.55718600       1.41214600  T        1        2
H       -4.28676300       2.99432000       1.38377100  T        1        2
H       -5.60596100       2.22136900       2.30375500  T        1        2
H       -6.19837400       0.80399700       0.44220400  T        1        2
H       -5.28126100       1.96386400      -0.55862500  T        1        2
C       -2.03730900      -1.70160400       4.47218900  F        0        1
C       -2.14741800      -0.29583800       5.06286600  F        0        1
O       -1.33270300       0.48725600       4.17280900  F        0        1
C       -0.60160200      -0.32422900       3.41628000  F        0        1
O       -0.86200900      -1.60741900       3.64772000  F        0        1
O        0.22724700       0.06696200       2.63312500  F        0        1
H       -1.87609700      -2.48018300       5.21545600  F        0        1
H       -2.87991600      -1.95411100       3.82814400  F        0        1
H       -3.15777000       0.10794000       5.04314600  F        0        1
H       -1.72720900      -0.21892800       6.06745600  F        0        1
41
Properties=species:S:1:pos:R:3:is_solvent:L:1:group_label:I:1:tags:I:1 Coordinates=T from=T ORCA-job=T Li1EC4_r05_charge_1_spin_1_liquid_t_traj_3_frame_0004=T E=T -1378.039689319279=T solvent_indices_0based="_JSON [21, 22, 23, 24, 25, 26, 27, 28, 29, 30]" complex_indices_0based="_JSON [0, 1, 2, 3, 4, 5, 6, 7, 8, 9, 10, 11, 12, 13, 14, 15, 16, 17, 18, 19, 20, 31, 32, 33, 34, 35, 36, 37, 38, 39, 40]" complex_indices_1based="_JSON [1, 2, 3, 4, 5, 6, 7, 8, 9, 10, 11, 12, 13, 14, 15, 16, 17, 18, 19, 20, 21, 32, 33, 34, 35, 36, 37, 38, 39, 40, 41]" pbc="F F F"
Li       0.92019894       0.19852553       0.84912853  F        0        1
C        5.65274701      -0.38120079      -0.65073115  F        0        1
C        5.97903384       1.05520225      -0.23874004  F        0        1
O        4.68019029       1.60725769       0.04831650  F        0        1