41
Properties=species:S:1:pos:R:3:is_solvent:L:1:group_label:I:1:tags:I:1 Coordinates=T from=T ORCA-job=T Li1EC4_r01_charge_1_spin_1_liquid_t_traj_3_frame_0000=T E=T -1378.044607781412=T solvent_indices_0based="_JSON [21, 22, 23, 24, 25, 26, 27, 28, 29, 30]" complex_indices_0based="_JSON [0, 1, 2, 3, 4, 5, 6, 7, 8, 9, 10, 11, 12, 13, 14, 15, 16, 17, 18, 19, 20, 31, 32, 33, 34, 35, 36, 37, 38, 39, 40]" complex_indices_1based="_JSON [1, 2, 3, 4, 5, 6, 7, 8, 9, 10, 11, 12, 13, 14, 15, 16, 17, 18, 19, 20, 21, 32, 33, 34, 35, 36, 37, 38, 39, 40, 41]" pbc="F F F"
Li       0.01602341      -0.05242664      -0.01731359  F        0        1
C        4.04312310       0.85004184      -2.24260306  F        0        1
C        3.69986927       2.29347800      -2.61679621  F        0        1
O        2.62369318       2.61214152      -1.71577588  F        0        1
C        2.14710594       1.48839127      -1.17972443  F        0        1
O        2.88091318       0.42414578      -1.50832816  F        0        1
O        1.17153039       1.44522716      -0.47707125  F        0        1
H        4.16673261       0.19362357      -3.10149384  F        0        1
H        4.90986516       0.77382380      -1.58460858  F        0        1
H        4.51358930       2.99468718      -2.44335823  F        0        1
H        3.33039746       2.39307728      -3.63826462  F        0        1
C       -3.39956590       3.62490940       0.70971105  F        0        1
C       -2.66115845       3.63909289      -0.62865118  F        0        1
O       -2.05819024       2.33263628      -0.66985614  F        0        1
C       -2.05452038       1.81198153       0.55847336  F        0        1
O       -2.74557708       2.55729425       1.42111687  F        0        1
O       -1.49872842       0.78701963       0.85635949  F        0        1
H       -3.28436742       4.54191051       1.28368626  F        0        1
H       -4.45669541       3.37333191       0.61189670  F        0        1
H       -3.31703092       3.74348911      -1.49037222  F        0        1
H       -1.86445074       4.38334667      -0.66879514  F        0        1
C       -2.16640689      -3.82529186      -1.67924630  T        1        2
C       -1.29456931      -4.00825265      -2.92307186  T        1        2
O       -0.65193816      -2.72738682      -3.05622826  T        1        2
C       -0.78953913      -2.04275267      -1.92078973  T        1        2
O       -1.59293320      -2.66258485      -1.05447277  T        1        2
O       -0.25379260      -0.98657611      -1.70841554  T        1        2
H       -3.20859144      -3.60703731      -1.91658115  T        1        2
H       -2.10864977      -4.65589261      -0.97878361  T        1        2
H       -0.52110449      -4.76660988      -2.79436667  T        1        2
H       -1.86302425      -4.20437996      -3.82987417  T        1        2
C        0.79773420      -0.43422899       4.51741853  F        0        1
C        1.03288709      -1.94292082       4.58525865  F        0        1
O        0.73140321      -2.37101196       3.24367843  F        0        1
C        0.73079676      -1.31227738       2.43415597  F        0        1
O        0.87237514      -0.16729433       3.10482080  F        0        1
O        0.62023792      -1.38462523       1.23818822  F        0        1
H       -0.19285823      -0.14052667       4.86787596  F        0        1
H        1.56360747       0.15226188       5.02045439  F        0        1
H        2.06978652      -2.20409568       4.80224478  F        0        1
H        0.36486022      -2.46092224       5.27005079  F        0        1
41
Properties=species:S:1:pos:R:3:is_solvent:L:1:group_label:I:1:tags:I:1 Coordinates=T from=T ORCA-job=T Li1EC4_r01_charge_1_spin_1_liquid_t_traj_3_frame_0000=T E=T -1378.044607781412=T solvent_indices_0based="_JSON [21, 22, 23, 24, 25, 26, 27, 28, 29, 30]" complex_indices_0based="_JSON [0, 1, 2, 3, 4, 5, 6, 7, 8, 9, 10, 11, 12, 13, 14, 15, 16, 17, 18, 19, 20, 31, 32, 33, 34, 35, 36, 37, 38, 39, 40]" complex_indices_1based="_JSON [1, 2, 3, 4, 5, 6, 7, 8, 9, 10, 11, 12, 13, 14, 15, 16, 17, 18, 19, 20, 21, 32, 33, 34, 35, 36, 37, 38, 39, 40, 41]" pbc="F F F"
Li       0.01602300      -0.05242700      -0.01731400  F        0        1
C        4.04312300       0.85004200      -2.24260300  F        0        1
C        3.69986900       2.29347800      -2.61679600  F        0        1
O        2.62369300       2.61214200      -1.71577600  F        0        1
C        2.14710600       1.48839100      -1.17972400  F        0        1
O        2.88091300       0.42414600      -1.50832800  F        0        1
O        1.17153000       1.44522700      -0.47707100  F        0        1
H        4.16673300       0.19362400      -3.10149400  F        0        1
H        4.90986500       0.77382400      -1.58460900  F        0        1
H        4.51358900       2.99468700      -2.44335800  F        0        1
H        3.33039700       2.39307700      -3.63826500  F        0        1
C       -3.39956600       3.62490900       0.70971100  F        0        1
C       -2.66115800       3.63909300      -0.62865100  F        0        1
O       -2.05819000       2.33263600      -0.66985600  F        0        1
C       -2.05452000       1.81198200       0.55847300  F        0        1
O       -2.74557700       2.55729400       1.42111700  F        0        1
O       -1.49872800       0.78702000       0.85635900  F        0        1
H       -3.28436700       4.54191100       1.28368600  F        0        1
H       -4.45669500       3.37333200       0.61189700  F        0        1
H       -3.31703100       3.74348900      -1.49037200  F        0        1
H       -1.86445100       4.38334700      -0.66879500  F        0        1
C       -2.16640700      -3.82529200      -1.67924600  T        1        2
C       -1.29456900      -4.00825300      -2.92307200  T        1        2
O       -0.65193800      -2.72738700      -3.05622800  T        1        2
C       -0.78953900      -2.04275300      -1.92079000  T        1        2
O       -1.59293300      -2.66258500      -1.05447300  T        1        2
O       -0.25379300      -0.98657600      -1.70841600  T        1        2
H       -3.20859100      -3.60703700      -1.91658100  T        1        2
H       -2.10865000      -4.65589300      -0.97878400  T        1        2
H       -0.52110400      -4.76661000      -2.79436700  T        1        2
H       -1.86302400      -4.20438000      -3.82987400  T        1        2
C        0.79773400      -0.43422900       4.51741900  F        0        1
C        1.03288700      -1.94292100       4.58525900  F        0        1
O        0.73140300      -2.37101200       3.24367800  F        0        1
C        0.73079700      -1.31227700       2.43415600  F        0        1
O        0.87237500      -0.16729400       3.10482100  F        0        1
O        0.62023800      -1.38462500       1.23818800  F        0        1
H       -0.19285800      -0.14052700       4.86787600  F        0        1
H        1.56360700       0.15226200       5.02045400  F        0        1
H        2.06978700      -2.20409600       4.80224500  F        0        1
H        0.36486000      -2.46092200       5.27005100  F        0        1
41
Properties=species:S:1:pos:R:3:is_solvent:L:1:group_label:I:1:tags:I:1 Coordinates=T from=T ORCA-job=T Li1EC4_r01_charge_1_spin_1_liquid_t_traj_3_frame_0001=T E=T -1378.039109850340=T solvent_indices_0based="_JSON [21, 22, 23, 24, 25, 26, 27, 28, 29, 30]" complex_indices_0based="_JSON [0, 1, 2, 3, 4, 5, 6, 7, 8, 9, 10, 11, 12, 13, 14, 15, 16, 17, 18, 19, 20, 31, 32, 33, 34, 35, 36, 37, 38, 39, 40]" complex_indices_1based="_JSON [1, 2, 3, 4, 5, 6, 7, 8, 9, 10, 11, 12, 13, 14, 15, 16, 17, 18, 19, 20, 21, 32, 33, 34, 35, 36, 37, 38, 39, 40, 41]" pbc="F F F"
Li      -0.06615278       0.25845868       0.45488424  F        0        1
C        3.59303823       0.88177692      -2.31515358  F        0        1
C        2.56555585       1.64284902      -3.15516144  F        0        1
O        1.67420482       2.17956221      -2.16103590  F        0        1
C        1.85814535       1.53033323      -1.01532334  F        0        1
O        2.92991368       0.74363382      -1.04533245  F        0        1
O        1.14015092       1.65074966      -0.05239089  F        0        1
H        3.81351265      -0.11308292      -2.69662186  F        0        1
H        4.51757272       1.43880438      -2.15795711  F        0        1
H        2.98972398       2.46959580      -3.72122007  F        0        1
H        1.98628331       0.98941537      -3.80804411  F        0        1
C       -3.74317288       3.70208314       0.23364026  F        0        1
C       -2.83333803       3.61781997      -0.99201835  F        0        1
O       -2.16480543       2.35618064      -0.80153986  F        0        1
C       -2.30173627       1.97687257       0.46887372  F        0        1
O       -3.13919894       2.76086370       1.14196866  F        0        1
O       -1.73741881       1.02836067       0.95353588  F        0        1
H       -3.75057255       4.68107233       0.70790045  F        0        1
H       -4.76393159       3.37406503       0.03225950  F        0        1
H       -3.37150245       3.58387293      -1.93680331  F        0        1
H       -2.07632628       4.40288645      -1.01722509  F        0        1
C       -1.62507072      -3.51521810      -1.92623385  T        1        2
C       -0.46227347      -3.82531985      -2.87097115  T        1        2
O        0.20113604      -2.55448473      -2.99146183  T        1        2
C       -0.21396033      -1.74228666      -2.01424378  T        1        2
O       -1.21988868      -2.27784523      -1.31541927  T        1        2
O        0.25684410      -0.65958389      -1.79430240  T        1        2
H       -2.56721199      -3.34710753      -2.45003557  T        1        2
H       -1.76040260      -4.25875340      -1.14339665  T        1        2
H        0.24509973      -4.54302592      -2.45290209  T        1        2
H       -0.77784296      -4.14609235      -3.86168016  T        1        2
C        0.90740618      -1.02487006       4.80962650  F        0        1
C        1.33342269      -2.46518419       4.52208394  F        0        1
O        0.94289905      -2.64525332       3.14629525  F        0        1
C        0.70840629      -1.45650172       2.59719661  F        0        1
O        0.76348303      -0.46767639       3.48841712  F        0        1
O        0.47375433      -1.29558723       1.42601772  F        0        1
H       -0.05692123      -0.95562051       5.31456235  F        0        1
H        1.65514790      -0.44588465       5.34724128  F        0        1
H        2.41172660      -2.61400801       4.59174722  F        0        1
H        0.81284381      -3.20504345       5.12627853  F        0        1
41
Properties=species:S:1:pos:R:3:is_solvent:L:1:group_label:I:1:tags:I:1 Coordinates=T from=T ORCA-job=T Li1EC4_r01_charge_1_spin_1_liquid_t_traj_3_frame_0001=T E=T -1378.039109850340=T solvent_indices_0based="_JSON [21, 22, 23, 24, 25, 26, 27, 28, 29, 30]" complex_indices_0based="_JSON [0, 1, 2, 3, 4, 5, 6, 7, 8, 9, 10, 11, 12, 13, 14, 15, 16, 17, 18, 19, 20, 31, 32, 33, 34, 35, 36, 37, 38, 39, 40]" complex_indices_1based="_JSON [1, 2, 3, 4, 5, 6, 7, 8, 9, 10, 11, 12, 13, 14, 15, 16, 17, 18, 19, 20, 21, 32, 33, 34, 35, 36, 37, 38, 39, 40, 41]" pbc="F F F"
Li      -0.06615300       0.25845900       0.45488400  F        0        1
C        3.59303800       0.88177700      -2.31515400  F        0        1
C        2.56555600       1.64284900      -3.15516100  F        0        1
O        1.67420500       2.17956200      -2.16103600  F        0        1
C        1.85814500       1.53033300      -1.01532300  F        0        1
O        2.92991400       0.74363400      -1.04533200  F        0        1
O        1.14015100       1.65075000      -0.05239100  F        0        1
H        3.81351300      -0.11308300      -2.69662200  F        0        1
H        4.51757300       1.43880400      -2.15795700  F        0        1
H        2.98972400       2.46959600      -3.72122000  F        0        1
H        1.98628300       0.98941500      -3.80804400  F        0        1
C       -3.74317300       3.70208300       0.23364000  F        0        1
C       -2.83333800       3.61782000      -0.99201800  F        0        1
O       -2.16480500       2.35618100      -0.80154000  F        0        1
C       -2.30173600       1.97687300       0.46887400  F        0        1
O       -3.13919900       2.76086400       1.14196900  F        0        1
O       -1.73741900       1.02836100       0.95353600  F        0        1
H       -3.75057300       4.68107200       0.70790000  F        0        1
H       -4.76393200       3.37406500       0.03226000  F        0        1
H       -3.37150200       3.58387300      -1.93680300  F        0        1
H       -2.07632600       4.40288600      -1.01722500  F        0        1
C       -1.62507100      -3.51521800      -1.92623400  T        1        2
C       -0.46227300      -3.82532000      -2.87097100  T        1        2
O        0.20113600      -2.55448500      -2.99146200  T        1        2
C       -0.21396000      -1.74228700      -2.01424400  T        1        2
O       -1.21988900      -2.27784500      -1.31541900  T        1        2
O        0.25684400      -0.65958400      -1.79430200  T        1        2
H       -2.56721200      -3.34710800      -2.45003600  T        1        2
H       -1.76040300      -4.25875300      -1.14339700  T        1        2
H        0.24510000      -4.54302600      -2.45290200  T        1        2
H       -0.77784300      -4.14609200      -3.86168000  T        1        2
C        0.90740600      -1.02487000       4.80962700  F        0        1
C        1.33342300      -2.46518400       4.52208400  F        0        1
O        0.94289900      -2.64525300       3.14629500  F        0        1
C        0.70840600      -1.45650200       2.59719700  F        0        1
O        0.76348300      -0.46767600       3.48841700  F        0        1
O        0.47375400      -1.29558700       1.42601800  F        0        1
H       -0.05692100      -0.95562100       5.31456200  F        0        1
H        1.65514800      -0.44588500       5.34724100  F        0        1
H        2.41172700      -2.61400800       4.59174700  F        0        1
H        0.81284400      -3.20504300       5.12627900  F        0        1
41
Properties=species:S:1:pos:R:3:is_solvent:L:1:group_label:I:1:tags:I:1 Coordinates=T from=T ORCA-job=T Li1EC4_r01_charge_1_spin_1_liquid_t_traj_3_frame_0002=T E=T -1378.040541569746=T solvent_indices_0based="_JSON [21, 22, 23, 24, 25, 26, 27, 28, 29, 30]" complex_indices_0based="_JSON [0, 1, 2, 3, 4, 5, 6, 7, 8, 9, 10, 11, 12, 13, 14, 15, 16, 17, 18, 19, 20, 31, 32, 33, 34, 35, 36, 37, 38, 39, 40]" complex_indices_1based="_JSON [1, 2, 3, 4, 5, 6, 7, 8, 9, 10, 11, 12, 13, 14, 15, 16, 17, 18, 19, 20, 21, 32, 33, 34, 35, 36, 37, 38, 39, 40, 41]" pbc="F F F"
Li      -0.05331560      -0.61015342      -0.03511936  F        0        1
C        2.89591577       0.96959339      -3.32778916  F        0        1
C        2.35552069       2.38845971      -3.17581453  F        0        1
O        1.48684085       2.27769665      -2.03091556  F        0        1
C        1.71597441       1.12723554      -1.41493608  F        0        1
O        2.62991741       0.39146954      -2.03732988  F        0        1
O        1.17346129       0.79861653      -0.39714345  F        0        1
H        2.35080109       0.39039622      -4.07142342  F        0        1
H        3.97116277       0.92667611      -3.50970047  F        0        1
H        3.13372932       3.12442975      -2.94856694  F        0        1
H        1.75875366       2.71580830      -4.02506943  F        0        1
C       -3.37639788       3.16552956       0.55320812  F        0        1
C       -2.43326309       3.30628830      -0.63553536  F        0        1
O       -1.93181293       1.96490616      -0.79442144  F        0        1
C       -2.14290578       1.28735924       0.32867276  F        0        1
O       -2.90202966       1.96437612       1.18488069  F        0        1
O       -1.70554976       0.18197410       0.54796367  F        0        1
H       -3.30839474       3.98044200       1.26596895  F        0        1
H       -4.41490971       3.00762316       0.26119481  F        0        1
H       -2.92939099       3.60096169      -1.55411989  F        0        1
H       -1.58790384       3.95944396      -0.43740467  F        0        1
C       -0.85303417      -3.37903681      -1.40705855  T        1        2
C       -0.46305448      -3.84450628      -2.81272417  T        1        2
O       -0.36237801      -2.60998050      -3.55246505  T        1        2
C       -0.25854155      -1.58699257      -2.70620309  T        1        2
O       -0.44608194      -1.99918861      -1.42512623  T        1        2
O       -0.02788938      -0.46059243      -2.98192487  T        1        2
H       -1.93320304      -3.41432787      -1.22819228  T        1        2
H       -0.31749087      -3.87920114      -0.60587985  T        1        2
H        0.51297110      -4.33755574      -2.83941439  T        1        2
H       -1.21997694      -4.47392649      -3.29126356  T        1        2
C        0.57734245      -0.76957683       4.53358946  F        0        1
C        0.87871644      -2.25954059       4.69977727  F        0        1
O        0.60298166      -2.78901233       3.38773693  F        0        1
C        0.53124126      -1.78474947       2.51057277  F        0        1
O        0.60616958      -0.59218307       3.10336829  F        0        1
O        0.40987201      -1.94156489       1.30378308  F        0        1
H       -0.41431617      -0.49536755       4.88969499  F        0        1
H        1.32966605      -0.11653578       4.97615493  F        0        1
H        1.92475477      -2.45829519       4.93550757  F        0        1
H        0.23029530      -2.76416246       5.41503014  F        0        1
41
Properties=species:S:1:pos:R:3:is_solvent:L:1:group_label:I:1:tags:I:1 Coordinates=T from=T ORCA-job=T Li1EC4_r01_charge_1_spin_1_liquid_t_traj_3_frame_0002=T E=T -1378.040541569746=T solvent_indices_0based="_JSON [21, 22, 23, 24, 25, 26, 27, 28, 29, 30]" complex_indices_0based="_JSON [0, 1, 2, 3, 4, 5, 6, 7, 8, 9, 10, 11, 12, 13, 14, 15, 16, 17, 18, 19, 20, 31, 32, 33, 34, 35, 36, 37, 38, 39, 40]" complex_indices_1based="_JSON [1, 2, 3, 4, 5, 6, 7, 8, 9, 10, 11, 12, 13, 14, 15, 16, 17, 18, 19, 20, 21, 32, 33, 34, 35, 36, 37, 38, 39, 40, 41]" pbc="F F F"
Li      -0.05331600      -0.61015300      -0.03511900  F        0        1
C        2.89591600       0.96959300      -3.32778900  F        0        1
C        2.35552100       2.38846000      -3.17581500  F        0        1
O        1.48684100       2.27769700      -2.03091600  F        0        1
C        1.71597400       1.12723600      -1.41493600  F        0        1
O        2.62991700       0.39147000      -2.03733000  F        0        1
O        1.17346100       0.79861700      -0.39714300  F        0        1
H        2.35080100       0.39039600      -4.07142300  F        0        1
H        3.97116300       0.92667600      -3.50970000  F        0        1
H        3.13372900       3.12443000      -2.94856700  F        0        1
H        1.75875400       2.71580800      -4.02506900  F        0        1
C       -3.37639800       3.16553000       0.55320800  F        0        1
C       -2.43326300       3.30628800      -0.63553500  F        0        1
O       -1.93181300       1.96490600      -0.79442100  F        0        1
C       -2.14290600       1.28735900       0.32867300  F        0        1
O       -2.90203000       1.96437600       1.18488100  F        0        1
O       -1.70555000       0.18197400       0.54796400  F        0        1
H       -3.30839500       3.98044200       1.26596900  F        0        1
H       -4.41491000       3.00762300       0.26119500  F        0        1
H       -2.92939100       3.60096200      -1.55412000  F        0        1
H       -1.58790400       3.95944400      -0.43740500  F        0        1
C       -0.85303400      -3.37903700      -1.40705900  T        1        2
C       -0.46305400      -3.84450600      -2.81272400  T        1        2
O       -0.36237800      -2.60998100      -3.55246500  T        1        2
C       -0.25854200      -1.58699300      -2.70620300  T        1        2
O       -0.44608200      -1.99918900      -1.42512600  T        1        2
O       -0.02788900      -0.46059200      -2.98192500  T        1        2
H       -1.93320300      -3.41432800      -1.22819200  T        1        2
H       -0.31749100      -3.87920100      -0.60588000  T        1        2
H        0.51297100      -4.33755600      -2.83941400  T        1        2
H       -1.21997700      -4.47392600      -3.29126400  T        1        2
C        0.57734200      -0.76957700       4.53358900  F        0        1
C        0.87871600      -2.25954100       4.69977700  F        0        1
O        0.60298200      -2.78901200       3.38773700  F        0        1
C        0.53124100      -1.78474900       2.51057300  F        0        1
O        0.60617000      -0.59218300       3.10336800  F        0        1
O        0.40987200      -1.94156500       1.30378300  F        0        1
H       -0.41431600      -0.49536800       4.88969500  F        0        1
H        1.32966600      -0.11653600       4.97615500  F        0        1
H        1.92475500      -2.45829500       4.93550800  F        0        1
H        0.23029500      -2.76416200       5.41503000  F        0        1
41
Properties=species:S:1:pos:R:3:is_solvent:L:1:group_label:I:1:tags:I:1 Coordinates=T from=T ORCA-job=T Li1EC4_r01_charge_1_spin_1_liquid_t_traj_3_frame_0003=T E=T -1378.036786373204=T solvent_indices_0based="_JSON [21, 22, 23, 24, 25, 26, 27, 28, 29, 30]" complex_indices_0based="_JSON [0, 1, 2, 3, 4, 5, 6, 7, 8, 9, 10, 11, 12, 13, 14, 15, 16, 17, 18, 19, 20, 31, 32, 33, 34, 35, 36, 37, 38, 39, 40]" complex_indices_1based="_JSON [1, 2, 3, 4, 5, 6, 7, 8, 9, 10, 11, 12, 13, 14, 15, 16, 17, 18, 19, 20, 21, 32, 33, 34, 35, 36, 37, 38, 39, 40, 41]" pbc="F F F"
Li       0.77924329      -0.10071381       1.15676924  F        0        1
C        2.44893836      -1.77197471      -2.44477945  F        0        1
C        2.75607536      -0.52608867      -3.27545029  F        0        1
O        2.21690432       0.53935665      -2.46822638  F        0        1
C        1.97834800       0.08148508      -1.24475285  F        0        1
O        2.22426444      -1.22379043      -1.13356319  F        0        1
O        1.59810698       0.76489695      -0.32590006  F        0        1
H        1.53511432      -2.27492741      -2.76083043  F        0        1
H        3.27575776      -2.47651718      -2.38665260  F        0        1
H        3.82462222      -0.34816239      -3.40367308  F        0        1
H        2.24949695      -0.51331054      -4.23756739  F        0        1
C       -4.13263855      -0.20180177      -0.26701033  F        0        1
C       -3.59769558       1.23768046      -0.28831160  F        0        1
O       -2.30616322       1.12412091       0.33474169  F        0        1
C       -2.04806032      -0.14802380       0.62028640  F        0        1
O       -3.04874333      -0.95787538       0.29792862  F        0        1
O       -1.02924958      -0.52418726       1.14349095  F        0        1
H       -5.00571716      -0.32853060       0.37225920  F        0        1
H       -4.33561421      -0.59203785      -1.26234501  F        0        1
H       -3.45235428       1.61980136      -1.29651823  F        0        1
H       -4.19680638       1.93102250       0.29989797  F        0        1
C       -2.62942963       0.27096966      -4.57916580  T        1        2
C       -1.51055320      -0.52374235      -5.25158096  T        1        2
O       -0.56054242      -0.70039189      -4.18728592  T        1        2
C       -1.15130078      -0.45533845      -3.00418573  T        1        2
O       -2.39306721       0.03698971      -3.17979716  T        1        2
O       -0.64521841      -0.64137539      -1.93935411  T        1        2
H       -2.55828309       1.34325193      -4.76584541  T        1        2
H       -3.62538004      -0.08864939      -4.83040936  T        1        2
H       -1.83519677      -1.50847929      -5.59151403  T        1        2
H       -1.02557801       0.01151683      -6.06536311  T        1        2
C        1.81731029       0.48786537       5.92439634  F        0        1
C        3.02526055      -0.44638377       5.85169096  F        0        1
O        2.89193428      -1.03821144       4.54389433  F        0        1
C        2.03463089      -0.32342053       3.82338925  F        0        1
O        1.44355198       0.63243985       4.53968006  F        0        1
O        1.82000001      -0.51725486       2.65414804  F        0        1
H        0.97279980       0.05301650       6.46062443  F        0        1
H        2.04771198       1.47331734       6.32338881  F        0        1
H        3.97888617       0.08167636       5.88871108  F        0        1
H        3.00858575      -1.24337269       6.59185538  F        0        1
41
Properties=species:S:1:pos:R:3:is_solvent:L:1:group_label:I:1:tags:I:1 Coordinates=T from=T ORCA-job=T Li1EC4_r01_charge_1_spin_1_liquid_t_traj_3_frame_0003=T E=T -1378.036786373204=T solvent_indices_0based="_JSON [21, 22, 23, 24, 25, 26, 27, 28, 29, 30]" complex_indices_0based="_JSON [0, 1, 2, 3, 4, 5, 6, 7, 8, 9, 10, 11, 12, 13, 14, 15, 16, 17, 18, 19, 20, 31, 32, 33, 34, 35, 36, 37, 38, 39, 40]" complex_indices_1based="_JSON [1, 2, 3, 4, 5, 6, 7, 8, 9, 10, 11, 12, 13, 14, 15, 16, 17, 18, 19, 20, 21, 32, 33, 34, 35, 36, 37, 38, 39, 40, 41]" pbc="F F F"
Li       0.77924300      -0.10071400       1.15676900  F        0        1
C        2.44893800      -1.77197500      -2.44477900  F        0        1
C        2.75607500      -0.52608900      -3.27545000  F        0        1
O        2.21690400       0.53935700      -2.46822600  F        0        1
C        1.97834800       0.08148500      -1.24475300  F        0        1
O        2.22426400      -1.22379000      -1.13356300  F        0        1
O        1.59810700       0.76489700      -0.32590000  F        0        1
H        1.53511400      -2.27492700      -2.76083000  F        0        1
H        3.27575800      -2.47651700      -2.38665300  F        0        1
H        3.82462200      -0.34816200      -3.40367300  F        0        1
H        2.24949700      -0.51331100      -4.23756700  F        0        1
C       -4.13263900      -0.20180200      -0.26701000  F        0        1
C       -3.59769600       1.23768000      -0.28831200  F        0        1
O       -2.30616300       1.12412100       0.33474200  F        0        1
C       -2.04806000      -0.14802400       0.62028600  F        0        1
O       -3.04874300      -0.95787500       0.29792900  F        0        1
O       -1.02925000      -0.52418700       1.14349100  F        0        1
H       -5.00571700      -0.32853100       0.37225900  F        0        1
H       -4.33561400      -0.59203800      -1.26234500  F        0        1
H       -3.45235400       1.61980100      -1.29651800  F        0        1
H       -4.19680600       1.93102200       0.29989800  F        0        1
C       -2.62943000       0.27097000      -4.57916600  T        1        2
C       -1.51055300      -0.52374200      -5.25158100  T        1        2
O       -0.56054200      -0.70039200      -4.18728600  T        1        2
C       -1.15130100      -0.45533800      -3.00418600  T        1        2
O       -2.39306700       0.03699000      -3.17979700  T        1        2
O       -0.64521800      -0.64137500      -1.93935400  T        1        2
H       -2.55828300       1.34325200      -4.76584500  T        1        2
H       -3.62538000      -0.08864900      -4.83040900  T        1        2
H       -1.83519700      -1.50847900      -5.59151400  T        1        2
H       -1.02557800       0.01151700      -6.06536300  T        1        2
C        1.81731000       0.48786500       5.92439600  F        0        1
C        3.02526100      -0.44638400       5.85169100  F        0        1
O        2.89193400      -1.03821100       4.54389400  F        0        1
C        2.03463100      -0.32342100       3.82338900  F        0        1
O        1.44355200       0.63244000       4.53968000  F        0        1
O        1.82000000      -0.51725500       2.65414800  F        0        1
H        0.97280000       0.05301600       6.46062400  F        0        1
H        2.04771200       1.47331700       6.32338900  F        0        1
H        3.97888600       0.08167600       5.88871100  F        0        1
H        3.00858600      -1.24337300       6.59185500  F        0        1
41
Properties=species:S:1:pos:R:3:is_solvent:L:1:group_label:I:1:tags:I:1 Coordinates=T from=T ORCA-job=T Li1EC4_r01_charge_1_spin_1_liquid_t_traj_3_frame_0004=T E=T -1378.039398670783=T solvent_indices_0based="_JSON [21, 22, 23, 24, 25, 26, 27, 28, 29, 30]" complex_indices_0based="_JSON [0, 1, 2, 3, 4, 5, 6, 7, 8, 9, 10, 11, 12, 13, 14, 15, 16, 17, 18, 19, 20, 31, 32, 33, 34, 35, 36, 37, 38, 39, 40]" complex_indices_1based="_JSON [1, 2, 3, 4, 5, 6, 7, 8, 9, 10, 11, 12, 13, 14, 15, 16, 17, 18, 19, 20, 21, 32, 33, 34, 35, 36, 37, 38, 39, 40, 41]" pbc="F F F"
Li       0.92695748      -0.29674728       1.14146812  F        0        1
C        1.58525749      -2.85371875      -2.41787677  F        0        1
C        2.23418917      -1.85236828      -3.37378425  F        0        1
O        2.10520259      -0.60309713      -2.66605947  F        0        1