41
Properties=species:S:1:pos:R:3:is_solvent:L:1:group_label:I:1:tags:I:1 Coordinates=T from=T ORCA-job=T Li1EC4_r02_charge_1_spin_1_liquid_t_traj_2_frame_0000=T E=T -1378.044609797692=T solvent_indices_0based="_JSON [11, 12, 13, 14, 15, 16, 17, 18, 19, 20]" complex_indices_0based="_JSON [0, 1, 2, 3, 4, 5, 6, 7, 8, 9, 10, 21, 22, 23, 24, 25, 26, 27, 28, 29, 30, 31, 32, 33, 34, 35, 36, 37, 38, 39, 40]" complex_indices_1based="_JSON [1, 2, 3, 4, 5, 6, 7, 8, 9, 10, 11, 22, 23, 24, 25, 26, 27, 28, 29, 30, 31, 32, 33, 34, 35, 36, 37, 38, 39, 40, 41]" pbc="F F F"
Li      -0.08780513       0.33611742      -0.25496787  F        0        1
C        3.63854782       0.60576344       2.42070025  F        0        1
C        3.87873224       2.11404225       2.35164069  F        0        1
O        2.74173430       2.58270739       1.60277420  F        0        1
C        2.15958832       1.54990625       0.99331989  F        0        1
O        2.70647632       0.38546915       1.34624472  F        0        1
O        1.25063257       1.66012752       0.21223745  F        0        1
H        4.53029017       0.01173040       2.23202221  F        0        1
H        3.16565060       0.28956549       3.35162629  F        0        1
H        3.87664767       2.60318726       3.32343816  F        0        1
H        4.78290557       2.37742344       1.80078069  F        0        1
C        1.28141399      -0.28437401      -4.68257337  T        1        2
C        0.91874927      -1.76725365      -4.78540034  T        1        2
O        0.78279330      -2.16083819      -3.40777421  T        1        2
C        0.68788091      -1.07270869      -2.64362643  T        1        2
O        0.88985838       0.04840383      -3.33841544  T        1        2
O        0.45226935      -1.10314137      -1.46431795  T        1        2
H        2.35183563      -0.09900704      -4.78251438  T        1        2
H        0.72605132       0.35004164      -5.37027893  T        1        2
H       -0.03542810      -1.93962097      -5.28524284  T        1        2
H        1.69554399      -2.37637443      -5.24305036  T        1        2
C       -3.12521470       4.31548635      -1.12635366  F        0        1
C       -2.38240664       4.31834444       0.20975971  F        0        1
O       -1.89208771       2.96773626       0.30075597  F        0        1
C       -1.93992519       2.40122476      -0.90673043  F        0        1
O       -2.56932859       3.16889549      -1.79613562  F        0        1
O       -1.47554969       1.32189103      -1.16528453  F        0        1
H       -4.19960671       4.16022780      -1.01680318  F        0        1
H       -2.93476428       5.19640835      -1.73577528  F        0        1
H       -1.52536748       4.99330063       0.22179379  F        0        1
H       -3.02404347       4.51116199       1.06696597  F        0        1
C       -2.78707736      -3.11267920       1.37896766  F        0        1
C       -1.95275275      -3.40874713       2.62733861  F        0        1
O       -1.14372860      -2.22556986       2.76187903  F        0        1
C       -1.19035242      -1.52526217       1.62901455  F        0        1
O       -2.06693039      -2.03114482       0.76029025  F        0        1
O       -0.52169197      -0.54701514       1.42010521  F        0        1
H       -2.83196777      -3.94262527       0.67677940  F        0        1
H       -3.79407328      -2.76355960       1.61150319  F        0        1
H       -2.54693699      -3.52479669       3.53142715  F        0        1
H       -1.28712458      -4.26396468       2.50382786  F        0        1
41
Properties=species:S:1:pos:R:3:is_solvent:L:1:group_label:I:1:tags:I:1 Coordinates=T from=T ORCA-job=T Li1EC4_r02_charge_1_spin_1_liquid_t_traj_2_frame_0000=T E=T -1378.044609797692=T solvent_indices_0based="_JSON [11, 12, 13, 14, 15, 16, 17, 18, 19, 20]" complex_indices_0based="_JSON [0, 1, 2, 3, 4, 5, 6, 7, 8, 9, 10, 21, 22, 23, 24, 25, 26, 27, 28, 29, 30, 31, 32, 33, 34, 35, 36, 37, 38, 39, 40]" complex_indices_1based="_JSON [1, 2, 3, 4, 5, 6, 7, 8, 9, 10, 11, 22, 23, 24, 25, 26, 27, 28, 29, 30, 31, 32, 33, 34, 35, 36, 37, 38, 39, 40, 41]" pbc="F F F"
Li      -0.08780500       0.33611700      -0.25496800  F        0        1
C        3.63854800       0.60576300       2.42070000  F        0        1
C        3.87873200       2.11404200       2.35164100  F        0        1
O        2.74173400       2.58270700       1.60277400  F        0        1
C        2.15958800       1.54990600       0.99332000  F        0        1
O        2.70647600       0.38546900       1.34624500  F        0        1
O        1.25063300       1.66012800       0.21223700  F        0        1
H        4.53029000       0.01173000       2.23202200  F        0        1
H        3.16565100       0.28956500       3.35162600  F        0        1
H        3.87664800       2.60318700       3.32343800  F        0        1
H        4.78290600       2.37742300       1.80078100  F        0        1
C        1.28141400      -0.28437400      -4.68257300  T        1        2
C        0.91874900      -1.76725400      -4.78540000  T        1        2
O        0.78279300      -2.16083800      -3.40777400  T        1        2
C        0.68788100      -1.07270900      -2.64362600  T        1        2
O        0.88985800       0.04840400      -3.33841500  T        1        2
O        0.45226900      -1.10314100      -1.46431800  T        1        2
H        2.35183600      -0.09900700      -4.78251400  T        1        2
H        0.72605100       0.35004200      -5.37027900  T        1        2
H       -0.03542800      -1.93962100      -5.28524300  T        1        2
H        1.69554400      -2.37637400      -5.24305000  T        1        2
C       -3.12521500       4.31548600      -1.12635400  F        0        1
C       -2.38240700       4.31834400       0.20976000  F        0        1
O       -1.89208800       2.96773600       0.30075600  F        0        1
C       -1.93992500       2.40122500      -0.90673000  F        0        1
O       -2.56932900       3.16889500      -1.79613600  F        0        1
O       -1.47555000       1.32189100      -1.16528500  F        0        1
H       -4.19960700       4.16022800      -1.01680300  F        0        1
H       -2.93476400       5.19640800      -1.73577500  F        0        1
H       -1.52536700       4.99330100       0.22179400  F        0        1
H       -3.02404300       4.51116200       1.06696600  F        0        1
C       -2.78707700      -3.11267900       1.37896800  F        0        1
C       -1.95275300      -3.40874700       2.62733900  F        0        1
O       -1.14372900      -2.22557000       2.76187900  F        0        1
C       -1.19035200      -1.52526200       1.62901500  F        0        1
O       -2.06693000      -2.03114500       0.76029000  F        0        1
O       -0.52169200      -0.54701500       1.42010500  F        0        1
H       -2.83196800      -3.94262500       0.67677900  F        0        1
H       -3.79407300      -2.76356000       1.61150300  F        0        1
H       -2.54693700      -3.52479700       3.53142700  F        0        1
H       -1.28712500      -4.26396500       2.50382800  F        0        1
41
Properties=species:S:1:pos:R:3:is_solvent:L:1:group_label:I:1:tags:I:1 Coordinates=T from=T ORCA-job=T Li1EC4_r02_charge_1_spin_1_liquid_t_traj_2_frame_0001=T E=T -1378.039021391299=T solvent_indices_0based="_JSON [11, 12, 13, 14, 15, 16, 17, 18, 19, 20]" complex_indices_0based="_JSON [0, 1, 2, 3, 4, 5, 6, 7, 8, 9, 10, 21, 22, 23, 24, 25, 26, 27, 28, 29, 30, 31, 32, 33, 34, 35, 36, 37, 38, 39, 40]" complex_indices_1based="_JSON [1, 2, 3, 4, 5, 6, 7, 8, 9, 10, 11, 22, 23, 24, 25, 26, 27, 28, 29, 30, 31, 32, 33, 34, 35, 36, 37, 38, 39, 40, 41]" pbc="F F F"
Li      -0.11649649       0.85167142       0.02297959  F        0        1
C        3.77852128       0.24711440       2.32963296  F        0        1
C        4.23395350       1.70574668       2.37802681  F        0        1
O        3.14639810       2.39818198       1.73473012  F        0        1
C        2.39778199       1.52056306       1.07288064  F        0        1
O        2.78255558       0.26322037       1.28948597  F        0        1
O        1.47999195       1.82982031       0.35488030  F        0        1
H        4.56421948      -0.44902252       2.04415186  F        0        1
H        3.29971728      -0.08201217       3.25292087  F        0        1
H        4.34244049       2.09809177       3.38680716  F        0        1
H        5.14246980       1.89001293       1.80291970  F        0        1
C        0.93630741      -0.73091791      -4.29966457  T        1        2
C        0.20547779      -2.07187025      -4.38628983  T        1        2
O        0.04820966      -2.44100206      -3.00497554  T        1        2
C        0.25741495      -1.36951259      -2.23293456  T        1        2
O        0.69785764      -0.32483398      -2.94037819  T        1        2
O        0.07486894      -1.35111205      -1.04600645  T        1        2
H        2.01366962      -0.82106089      -4.44647987  T        1        2
H        0.53095161       0.02995071      -4.96348706  T        1        2
H       -0.78583877      -1.98622550      -4.83390355  T        1        2
H        0.77644444      -2.84921494      -4.88997227  T        1        2
C       -3.50203928       4.30381596      -1.57010099  F        0        1
C       -2.75034412       4.66146616      -0.28705015  F        0        1
O       -2.02954179       3.44829112       0.00620616  F        0        1
C       -2.01933070       2.67005136      -1.07508388  F        0        1
O       -2.78037618       3.15333464      -2.05295101  F        0        1
O       -1.39368447       1.64329766      -1.15994145  F        0        1
H       -4.53592976       4.00586345      -1.39114530  F        0        1
H       -3.46169095       5.07939279      -2.33187997  F        0        1
H       -2.02384963       5.46316424      -0.42532455  F        0        1
H       -3.40170873       4.88604582       0.55478571  F        0        1
C       -2.18314252      -3.09676433       1.29692541  F        0        1
C       -0.74454393      -3.49776626       1.63024937  F        0        1
O       -0.14419415      -2.24778324       2.01359926  F        0        1
C       -0.91386088      -1.24730344       1.59331683  F        0        1
O       -2.09032161      -1.66898372       1.14173406  F        0        1
O       -0.58374522      -0.08687784       1.62835594  F        0        1
H       -2.54669184      -3.51930034       0.36253928  F        0        1
H       -2.88583579      -3.30642590       2.10440994  F        0        1
H       -0.66785344      -4.18926863       2.46693230  F        0        1
H       -0.20091589      -3.88147048       0.76654395  F        0        1
41
Properties=species:S:1:pos:R:3:is_solvent:L:1:group_label:I:1:tags:I:1 Coordinates=T from=T ORCA-job=T Li1EC4_r02_charge_1_spin_1_liquid_t_traj_2_frame_0001=T E=T -1378.039021391299=T solvent_indices_0based="_JSON [11, 12, 13, 14, 15, 16, 17, 18, 19, 20]" complex_indices_0based="_JSON [0, 1, 2, 3, 4, 5, 6, 7, 8, 9, 10, 21, 22, 23, 24, 25, 26, 27, 28, 29, 30, 31, 32, 33, 34, 35, 36, 37, 38, 39, 40]" complex_indices_1based="_JSON [1, 2, 3, 4, 5, 6, 7, 8, 9, 10, 11, 22, 23, 24, 25, 26, 27, 28, 29, 30, 31, 32, 33, 34, 35, 36, 37, 38, 39, 40, 41]" pbc="F F F"
Li      -0.11649600       0.85167100       0.02298000  F        0        1
C        3.77852100       0.24711400       2.32963300  F        0        1
C        4.23395300       1.70574700       2.37802700  F        0        1
O        3.14639800       2.39818200       1.73473000  F        0        1
C        2.39778200       1.52056300       1.07288100  F        0        1
O        2.78255600       0.26322000       1.28948600  F        0        1
O        1.47999200       1.82982000       0.35488000  F        0        1
H        4.56421900      -0.44902300       2.04415200  F        0        1
H        3.29971700      -0.08201200       3.25292100  F        0        1
H        4.34244000       2.09809200       3.38680700  F        0        1
H        5.14247000       1.89001300       1.80292000  F        0        1
C        0.93630700      -0.73091800      -4.29966500  T        1        2
C        0.20547800      -2.07187000      -4.38629000  T        1        2
O        0.04821000      -2.44100200      -3.00497600  T        1        2
C        0.25741500      -1.36951300      -2.23293500  T        1        2
O        0.69785800      -0.32483400      -2.94037800  T        1        2
O        0.07486900      -1.35111200      -1.04600600  T        1        2
H        2.01367000      -0.82106100      -4.44648000  T        1        2
H        0.53095200       0.02995100      -4.96348700  T        1        2
H       -0.78583900      -1.98622500      -4.83390400  T        1        2
H        0.77644400      -2.84921500      -4.88997200  T        1        2
C       -3.50203900       4.30381600      -1.57010100  F        0        1
C       -2.75034400       4.66146600      -0.28705000  F        0        1
O       -2.02954200       3.44829100       0.00620600  F        0        1
C       -2.01933100       2.67005100      -1.07508400  F        0        1
O       -2.78037600       3.15333500      -2.05295100  F        0        1
O       -1.39368400       1.64329800      -1.15994100  F        0        1
H       -4.53593000       4.00586300      -1.39114500  F        0        1
H       -3.46169100       5.07939300      -2.33188000  F        0        1
H       -2.02385000       5.46316400      -0.42532500  F        0        1
H       -3.40170900       4.88604600       0.55478600  F        0        1
C       -2.18314300      -3.09676400       1.29692500  F        0        1
C       -0.74454400      -3.49776600       1.63024900  F        0        1
O       -0.14419400      -2.24778300       2.01359900  F        0        1
C       -0.91386100      -1.24730300       1.59331700  F        0        1
O       -2.09032200      -1.66898400       1.14173400  F        0        1
O       -0.58374500      -0.08687800       1.62835600  F        0        1
H       -2.54669200      -3.51930000       0.36253900  F        0        1
H       -2.88583600      -3.30642600       2.10441000  F        0        1
H       -0.66785300      -4.18926900       2.46693200  F        0        1
H       -0.20091600      -3.88147000       0.76654400  F        0        1
41
Properties=species:S:1:pos:R:3:is_solvent:L:1:group_label:I:1:tags:I:1 Coordinates=T from=T ORCA-job=T Li1EC4_r02_charge_1_spin_1_liquid_t_traj_2_frame_0002=T E=T -1378.040937006597=T solvent_indices_0based="_JSON [11, 12, 13, 14, 15, 16, 17, 18, 19, 20]" complex_indices_0based="_JSON [0, 1, 2, 3, 4, 5, 6, 7, 8, 9, 10, 21, 22, 23, 24, 25, 26, 27, 28, 29, 30, 31, 32, 33, 34, 35, 36, 37, 38, 39, 40]" complex_indices_1based="_JSON [1, 2, 3, 4, 5, 6, 7, 8, 9, 10, 11, 22, 23, 24, 25, 26, 27, 28, 29, 30, 31, 32, 33, 34, 35, 36, 37, 38, 39, 40, 41]" pbc="F F F"
Li      -0.21680876       0.53885427      -0.82711948  F        0        1
C        3.57674979       0.11545475       2.17046292  F        0        1
C        3.90452501       1.61064491       2.12015145  F        0        1
O        2.83507728       2.14800303       1.31643881  F        0        1
C        2.23373144       1.15128583       0.66995892  F        0        1
O        2.68827343      -0.04915512       1.04720342  F        0        1
O        1.38093083       1.32299131      -0.16059163  F        0        1
H        4.44421991      -0.53634624       2.02516079  F        0        1
H        3.04206540      -0.17036081       3.07282448  F        0        1
H        3.87901305       2.09934541       3.08956387  F        0        1
H        4.84523402       1.82241241       1.61789347  F        0        1
C        0.17377425      -0.48982822      -3.83465236  T        1        2
C        0.23400921      -1.93550882      -4.32613329  T        1        2
O        0.70419193      -2.65538807      -3.17002600  T        1        2
C        0.56618047      -1.90531825      -2.08216413  T        1        2
O        0.17257377      -0.64992895      -2.40737501  T        1        2
O        0.75074623      -2.25137499      -0.95360226  T        1        2
H        1.05078562       0.09670491      -4.10944044  T        1        2
H       -0.72766911       0.03078728      -4.11562187  T        1        2
H       -0.74600553      -2.33358018      -4.59892820  T        1        2
H        0.94160630      -2.08704328      -5.13948784  T        1        2
C       -3.27916164       4.55677206      -1.70185372  F        0        1
C       -2.63859294       4.51309257      -0.31171785  F        0        1
O       -1.95322800       3.24153048      -0.31497780  F        0        1
C       -1.85650880       2.79255296      -1.57384870  F        0        1
O       -2.52483938       3.56432181      -2.43618769  F        0        1
O       -1.23441195       1.79770619      -1.89993119  F        0        1
H       -4.32585831       4.24826334      -1.69744152  F        0        1
H       -3.16949830       5.51686725      -2.20792950  F        0        1
H       -1.90152813       5.29951394      -0.16241475  F        0        1
H       -3.35858285       4.51033891       0.50688269  F        0        1
C       -1.43922200      -3.65786544       1.43005719  F        0        1
C       -0.11609051      -3.15686688       2.02550233  F        0        1
O       -0.20078727      -1.72835878       1.86721283  F        0        1
C       -1.11425770      -1.46875698       0.94213472  F        0        1
O       -1.84502784      -2.53924361       0.62387085  F        0        1
O       -1.27794213      -0.37705597       0.45694669  F        0        1
H       -1.32784513      -4.53105527       0.78468706  F        0        1
H       -2.22104311      -3.84286645       2.18228458  F        0        1
H       -0.00813290      -3.37373223       3.08177797  F        0        1
H        0.75054722      -3.49755309       1.46537198  F        0        1
41
Properties=species:S:1:pos:R:3:is_solvent:L:1:group_label:I:1:tags:I:1 Coordinates=T from=T ORCA-job=T Li1EC4_r02_charge_1_spin_1_liquid_t_traj_2_frame_0002=T E=T -1378.040937006597=T solvent_indices_0based="_JSON [11, 12, 13, 14, 15, 16, 17, 18, 19, 20]" complex_indices_0based="_JSON [0, 1, 2, 3, 4, 5, 6, 7, 8, 9, 10, 21, 22, 23, 24, 25, 26, 27, 28, 29, 30, 31, 32, 33, 34, 35, 36, 37, 38, 39, 40]" complex_indices_1based="_JSON [1, 2, 3, 4, 5, 6, 7, 8, 9, 10, 11, 22, 23, 24, 25, 26, 27, 28, 29, 30, 31, 32, 33, 34, 35, 36, 37, 38, 39, 40, 41]" pbc="F F F"
Li      -0.21680900       0.53885400      -0.82711900  F        0        1
C        3.57675000       0.11545500       2.17046300  F        0        1
C        3.90452500       1.61064500       2.12015100  F        0        1
O        2.83507700       2.14800300       1.31643900  F        0        1
C        2.23373100       1.15128600       0.66995900  F        0        1
O        2.68827300      -0.04915500       1.04720300  F        0        1
O        1.38093100       1.32299100      -0.16059200  F        0        1
H        4.44422000      -0.53634600       2.02516100  F        0        1
H        3.04206500      -0.17036100       3.07282400  F        0        1
H        3.87901300       2.09934500       3.08956400  F        0        1
H        4.84523400       1.82241200       1.61789300  F        0        1
C        0.17377400      -0.48982800      -3.83465200  T        1        2
C        0.23400900      -1.93550900      -4.32613300  T        1        2
O        0.70419200      -2.65538800      -3.17002600  T        1        2
C        0.56618000      -1.90531800      -2.08216400  T        1        2
O        0.17257400      -0.64992900      -2.40737500  T        1        2
O        0.75074600      -2.25137500      -0.95360200  T        1        2
H        1.05078600       0.09670500      -4.10944000  T        1        2
H       -0.72766900       0.03078700      -4.11562200  T        1        2
H       -0.74600600      -2.33358000      -4.59892800  T        1        2
H        0.94160600      -2.08704300      -5.13948800  T        1        2
C       -3.27916200       4.55677200      -1.70185400  F        0        1
C       -2.63859300       4.51309300      -0.31171800  F        0        1
O       -1.95322800       3.24153000      -0.31497800  F        0        1
C       -1.85650900       2.79255300      -1.57384900  F        0        1
O       -2.52483900       3.56432200      -2.43618800  F        0        1
O       -1.23441200       1.79770600      -1.89993100  F        0        1
H       -4.32585800       4.24826300      -1.69744200  F        0        1
H       -3.16949800       5.51686700      -2.20792900  F        0        1
H       -1.90152800       5.29951400      -0.16241500  F        0        1
H       -3.35858300       4.51033900       0.50688300  F        0        1
C       -1.43922200      -3.65786500       1.43005700  F        0        1
C       -0.11609100      -3.15686700       2.02550200  F        0        1
O       -0.20078700      -1.72835900       1.86721300  F        0        1
C       -1.11425800      -1.46875700       0.94213500  F        0        1
O       -1.84502800      -2.53924400       0.62387100  F        0        1
O       -1.27794200      -0.37705600       0.45694700  F        0        1
H       -1.32784500      -4.53105500       0.78468700  F        0        1
H       -2.22104300      -3.84286600       2.18228500  F        0        1
H       -0.00813300      -3.37373200       3.08177800  F        0        1
H        0.75054700      -3.49755300       1.46537200  F        0        1
41
Properties=species:S:1:pos:R:3:is_solvent:L:1:group_label:I:1:tags:I:1 Coordinates=T from=T ORCA-job=T Li1EC4_r02_charge_1_spin_1_liquid_t_traj_2_frame_0003=T E=T -1378.037320877328=T solvent_indices_0based="_JSON [11, 12, 13, 14, 15, 16, 17, 18, 19, 20]" complex_indices_0based="_JSON [0, 1, 2, 3, 4, 5, 6, 7, 8, 9, 10, 21, 22, 23, 24, 25, 26, 27, 28, 29, 30, 31, 32, 33, 34, 35, 36, 37, 38, 39, 40]" complex_indices_1based="_JSON [1, 2, 3, 4, 5, 6, 7, 8, 9, 10, 11, 22, 23, 24, 25, 26, 27, 28, 29, 30, 31, 32, 33, 34, 35, 36, 37, 38, 39, 40, 41]" pbc="F F F"
Li      -1.16384505       1.20649624       0.13092964  F        0        1
C        3.41537006       1.23490157       0.24089856  F        0        1
C        3.64963917       1.64779772      -1.21283150  F        0        1
O        2.31238476       1.74314712      -1.73987079  F        0        1
C        1.44213946       1.73386634      -0.73854501  F        0        1
O        2.02802603       1.56218150       0.44436843  F        0        1
O        0.25337368       1.89148394      -0.88092533  F        0        1
H        3.53655141       0.16315968       0.39973369  F        0        1
H        4.01083988       1.79614542       0.95727839  F        0        1
H        4.12580153       2.62490869      -1.31327974  F        0        1
H        4.19043922       0.90169354      -1.79101881  F        0        1
C        3.88252464      -2.96755923      -1.85796523  T        1        2
C        2.72014541      -3.85129418      -2.30581563  T        1        2
O        1.58212904      -3.19999220      -1.71216917  T        1        2
C        1.91080479      -1.93876373      -1.37549090  T        1        2
O        3.22982266      -1.72537963      -1.53568150  T        1        2
O        1.13648119      -1.11925248      -0.98390903  T        1        2
H        4.37802157      -3.34024635      -0.95908337  T        1        2
H        4.61573992      -2.78273532      -2.64065330  T        1        2
H        2.58659734      -3.86040571      -3.38912195  T        1        2
H        2.77551784      -4.87075944      -1.92622547  T        1        2
C       -4.88113601       4.80741524       0.79083044  F        0        1
C       -3.50610720       5.43069458       1.03506608  F        0        1
O       -2.63028386       4.28535023       1.01808676  F        0        1
C       -3.27275067       3.24985629       0.47944911  F        0        1
O       -4.55280074       3.51581937       0.24250382  F        0        1
O       -2.75564689       2.18957843       0.23609007  F        0        1
H       -5.44968771       4.65203216       1.70814942  F        0        1
H       -5.48306269       5.34656290       0.06368703  F        0        1
H       -3.19460026       6.10853969       0.23875237  F        0        1
H       -3.41290898       5.91928091       2.00239987  F        0        1
C       -1.83570509      -2.95418378      -1.18841841  F        0        1
C       -1.37280699      -3.72332003       0.05024345  F        0        1
O       -0.88105141      -2.68176671       0.91383927  F        0        1
C       -1.27846963      -1.50279856       0.45130348  F        0        1
O       -1.93477395      -1.60381105      -0.70398530  F        0        1
O       -1.08718762      -0.45479005       1.01704873  F        0        1
H       -1.10174475      -2.97162824      -1.99395454  F        0        1
H       -2.81382357      -3.26221501      -1.55236529  F        0        1
H       -2.18342476      -4.23859906       0.56656079  F        0        1
H       -0.55546151      -4.41126676      -0.15347042  F        0        1
41
Properties=species:S:1:pos:R:3:is_solvent:L:1:group_label:I:1:tags:I:1 Coordinates=T from=T ORCA-job=T Li1EC4_r02_charge_1_spin_1_liquid_t_traj_2_frame_0003=T E=T -1378.037320877328=T solvent_indices_0based="_JSON [11, 12, 13, 14, 15, 16, 17, 18, 19, 20]" complex_indices_0based="_JSON [0, 1, 2, 3, 4, 5, 6, 7, 8, 9, 10, 21, 22, 23, 24, 25, 26, 27, 28, 29, 30, 31, 32, 33, 34, 35, 36, 37, 38, 39, 40]" complex_indices_1based="_JSON [1, 2, 3, 4, 5, 6, 7, 8, 9, 10, 11, 22, 23, 24, 25, 26, 27, 28, 29, 30, 31, 32, 33, 34, 35, 36, 37, 38, 39, 40, 41]" pbc="F F F"
Li      -1.16384500       1.20649600       0.13093000  F        0        1
C        3.41537000       1.23490200       0.24089900  F        0        1
C        3.64963900       1.64779800      -1.21283200  F        0        1
O        2.31238500       1.74314700      -1.73987100  F        0        1
C        1.44213900       1.73386600      -0.73854500  F        0        1
O        2.02802600       1.56218100       0.44436800  F        0        1
O        0.25337400       1.89148400      -0.88092500  F        0        1
H        3.53655100       0.16316000       0.39973400  F        0        1
H        4.01084000       1.79614500       0.95727800  F        0        1
H        4.12580200       2.62490900      -1.31328000  F        0        1
H        4.19043900       0.90169400      -1.79101900  F        0        1
C        3.88252500      -2.96755900      -1.85796500  T        1        2
C        2.72014500      -3.85129400      -2.30581600  T        1        2
O        1.58212900      -3.19999200      -1.71216900  T        1        2
C        1.91080500      -1.93876400      -1.37549100  T        1        2
O        3.22982300      -1.72538000      -1.53568200  T        1        2
O        1.13648100      -1.11925200      -0.98390900  T        1        2
H        4.37802200      -3.34024600      -0.95908300  T        1        2
H        4.61574000      -2.78273500      -2.64065300  T        1        2
H        2.58659700      -3.86040600      -3.38912200  T        1        2
H        2.77551800      -4.87075900      -1.92622500  T        1        2
C       -4.88113600       4.80741500       0.79083000  F        0        1
C       -3.50610700       5.43069500       1.03506600  F        0        1
O       -2.63028400       4.28535000       1.01808700  F        0        1
C       -3.27275100       3.24985600       0.47944900  F        0        1
O       -4.55280100       3.51581900       0.24250400  F        0        1
O       -2.75564700       2.18957800       0.23609000  F        0        1
H       -5.44968800       4.65203200       1.70814900  F        0        1
H       -5.48306300       5.34656300       0.06368700  F        0        1
H       -3.19460000       6.10854000       0.23875200  F        0        1
H       -3.41290900       5.91928100       2.00240000  F        0        1
C       -1.83570500      -2.95418400      -1.18841800  F        0        1
C       -1.37280700      -3.72332000       0.05024300  F        0        1
O       -0.88105100      -2.68176700       0.91383900  F        0        1
C       -1.27847000      -1.50279900       0.45130300  F        0        1
O       -1.93477400      -1.60381100      -0.70398500  F        0        1
O       -1.08718800      -0.45479000       1.01704900  F        0        1
H       -1.10174500      -2.97162800      -1.99395500  F        0        1
H       -2.81382400      -3.26221500      -1.55236500  F        0        1
H       -2.18342500      -4.23859900       0.56656100  F        0        1
H       -0.55546200      -4.41126700      -0.15347000  F        0        1
41
Properties=species:S:1:pos:R:3:is_solvent:L:1:group_label:I:1:tags:I:1 Coordinates=T from=T ORCA-job=T Li1EC4_r02_charge_1_spin_1_liquid_t_traj_2_frame_0004=T E=T -1378.038722107140=T solvent_indices_0based="_JSON [11, 12, 13, 14, 15, 16, 17, 18, 19, 20]" complex_indices_0based="_JSON [0, 1, 2, 3, 4, 5, 6, 7, 8, 9, 10, 21, 22, 23, 24, 25, 26, 27, 28, 29, 30, 31, 32, 33, 34, 35, 36, 37, 38, 39, 40]" complex_indices_1based="_JSON [1, 2, 3, 4, 5, 6, 7, 8, 9, 10, 11, 22, 23, 24, 25, 26, 27, 28, 29, 30, 31, 32, 33, 34, 35, 36, 37, 38, 39, 40, 41]" pbc="F F F"
Li      -1.38956634       1.25168290      -0.07424105  F        0        1
C        3.20849592       1.07733125       0.17388632  F        0        1
C        3.50850818       1.36991903      -1.29886863  F        0        1
O        2.19825905       1.52365662      -1.88028537  F        0        1