41
Properties=species:S:1:pos:R:3:is_solvent:L:1:group_label:I:1:tags:I:1 Coordinates=T from=T ORCA-job=T Li1EC4_r08_charge_1_spin_1_liquid_t_traj_1_frame_0000=T E=T -1378.044432012828=T solvent_indices_0based="_JSON [1, 2, 3, 4, 5, 6, 7, 8, 9, 10]" complex_indices_0based="_JSON [0, 11, 12, 13, 14, 15, 16, 17, 18, 19, 20, 21, 22, 23, 24, 25, 26, 27, 28, 29, 30, 31, 32, 33, 34, 35, 36, 37, 38, 39, 40]" complex_indices_1based="_JSON [1, 12, 13, 14, 15, 16, 17, 18, 19, 20, 21, 22, 23, 24, 25, 26, 27, 28, 29, 30, 31, 32, 33, 34, 35, 36, 37, 38, 39, 40, 41]" pbc="F F F"
Li       0.17733396      -0.21389994       0.15820737  F        0        1
C        4.58494505      -1.19349207       2.48252081  T        1        2
C        4.34354646       0.28979510       2.20032613  T        1        2
O        3.06244963       0.28520618       1.54437303  T        1        2
C        2.76795651      -0.95653430       1.15372591  T        1        2
O        3.66485302      -1.84384076       1.58642282  T        1        2
O        1.81033711      -1.24519683       0.48529342  T        1        2
H        5.59228705      -1.52719300       2.24260722  T        1        2
H        4.32710688      -1.47973983       3.50311514  T        1        2
H        4.26759205       0.89824492       3.09907980  T        1        2
H        5.07645331       0.71948279       1.51601589  T        1        2
C       -1.85236410      -4.80127429      -0.59308727  F        0        1
C       -1.06896546      -4.60921833       0.70544444  F        0        1
O       -0.93005837      -3.17885285       0.78233205  F        0        1
C       -1.18064582      -2.64702761      -0.41614130  F        0        1
O       -1.64325203      -3.55250561      -1.27870668  F        0        1
O       -1.01588119      -1.48651177      -0.68724592  F        0        1
H       -1.47100721      -5.60510287      -1.21922344  F        0        1
H       -2.92389502      -4.92702074      -0.43122368  F        0        1
H       -1.59857319      -4.95178691       1.59187820  F        0        1
H       -0.07041886      -5.04723290       0.66957353  F        0        1
C       -3.11567286       2.46624287       2.10438889  F        0        1
C       -2.32095646       2.85026156       3.35341287  F        0        1
O       -1.26836484       1.86874266       3.37834689  F        0        1
C       -1.19445126       1.26855620       2.19005934  F        0        1
O       -2.19119701       1.63342437       1.38072926  F        0        1
O       -0.33196802       0.48582736       1.88928514  F        0        1
H       -4.00473903       1.87516865       2.32845554  F        0        1
H       -3.37809253       3.31483902       1.47608264  F        0        1
H       -1.86432026       3.83826485       3.28060696  F        0        1
H       -2.88997001       2.76756530       4.27701643  F        0        1
C        0.82611770       0.88822869      -4.38112329  F        0        1
C        0.07432170       2.21826675      -4.31776766  F        0        1
O        0.03584739       2.49753487      -2.90589496  F        0        1
C        0.33109101       1.38772705      -2.22818020  F        0        1
O        0.71743185       0.39613330      -3.03296658  F        0        1
O        0.26159738       1.29721173      -1.03067750  F        0        1
H        0.37119246       0.16112247      -5.05050783  F        0        1
H        1.88455500       1.00643500      -4.61735149  F        0        1
H        0.58895712       3.03709265      -4.81609708  F        0        1
H       -0.95235867       2.14446268      -4.67901149  F        0        1
41
Properties=species:S:1:pos:R:3:is_solvent:L:1:group_label:I:1:tags:I:1 Coordinates=T from=T ORCA-job=T Li1EC4_r08_charge_1_spin_1_liquid_t_traj_1_frame_0000=T E=T -1378.044432012828=T solvent_indices_0based="_JSON [1, 2, 3, 4, 5, 6, 7, 8, 9, 10]" complex_indices_0based="_JSON [0, 11, 12, 13, 14, 15, 16, 17, 18, 19, 20, 21, 22, 23, 24, 25, 26, 27, 28, 29, 30, 31, 32, 33, 34, 35, 36, 37, 38, 39, 40]" complex_indices_1based="_JSON [1, 12, 13, 14, 15, 16, 17, 18, 19, 20, 21, 22, 23, 24, 25, 26, 27, 28, 29, 30, 31, 32, 33, 34, 35, 36, 37, 38, 39, 40, 41]" pbc="F F F"
Li       0.17733400      -0.21390000       0.15820700  F        0        1
C        4.58494500      -1.19349200       2.48252100  T        1        2
C        4.34354600       0.28979500       2.20032600  T        1        2
O        3.06245000       0.28520600       1.54437300  T        1        2
C        2.76795700      -0.95653400       1.15372600  T        1        2
O        3.66485300      -1.84384100       1.58642300  T        1        2
O        1.81033700      -1.24519700       0.48529300  T        1        2
H        5.59228700      -1.52719300       2.24260700  T        1        2
H        4.32710700      -1.47974000       3.50311500  T        1        2
H        4.26759200       0.89824500       3.09908000  T        1        2
H        5.07645300       0.71948300       1.51601600  T        1        2
C       -1.85236400      -4.80127400      -0.59308700  F        0        1
C       -1.06896500      -4.60921800       0.70544400  F        0        1
O       -0.93005800      -3.17885300       0.78233200  F        0        1
C       -1.18064600      -2.64702800      -0.41614100  F        0        1
O       -1.64325200      -3.55250600      -1.27870700  F        0        1
O       -1.01588100      -1.48651200      -0.68724600  F        0        1
H       -1.47100700      -5.60510300      -1.21922300  F        0        1
H       -2.92389500      -4.92702100      -0.43122400  F        0        1
H       -1.59857300      -4.95178700       1.59187800  F        0        1
H       -0.07041900      -5.04723300       0.66957400  F        0        1
C       -3.11567300       2.46624300       2.10438900  F        0        1
C       -2.32095600       2.85026200       3.35341300  F        0        1
O       -1.26836500       1.86874300       3.37834700  F        0        1
C       -1.19445100       1.26855600       2.19005900  F        0        1
O       -2.19119700       1.63342400       1.38072900  F        0        1
O       -0.33196800       0.48582700       1.88928500  F        0        1
H       -4.00473900       1.87516900       2.32845600  F        0        1
H       -3.37809300       3.31483900       1.47608300  F        0        1
H       -1.86432000       3.83826500       3.28060700  F        0        1
H       -2.88997000       2.76756500       4.27701600  F        0        1
C        0.82611800       0.88822900      -4.38112300  F        0        1
C        0.07432200       2.21826700      -4.31776800  F        0        1
O        0.03584700       2.49753500      -2.90589500  F        0        1
C        0.33109100       1.38772700      -2.22818000  F        0        1
O        0.71743200       0.39613300      -3.03296700  F        0        1
O        0.26159700       1.29721200      -1.03067800  F        0        1
H        0.37119200       0.16112200      -5.05050800  F        0        1
H        1.88455500       1.00643500      -4.61735100  F        0        1
H        0.58895700       3.03709300      -4.81609700  F        0        1
H       -0.95235900       2.14446300      -4.67901100  F        0        1
41
Properties=species:S:1:pos:R:3:is_solvent:L:1:group_label:I:1:tags:I:1 Coordinates=T from=T ORCA-job=T Li1EC4_r08_charge_1_spin_1_liquid_t_traj_1_frame_0001=T E=T -1378.039361458507=T solvent_indices_0based="_JSON [1, 2, 3, 4, 5, 6, 7, 8, 9, 10]" complex_indices_0based="_JSON [0, 11, 12, 13, 14, 15, 16, 17, 18, 19, 20, 21, 22, 23, 24, 25, 26, 27, 28, 29, 30, 31, 32, 33, 34, 35, 36, 37, 38, 39, 40]" complex_indices_1based="_JSON [1, 12, 13, 14, 15, 16, 17, 18, 19, 20, 21, 22, 23, 24, 25, 26, 27, 28, 29, 30, 31, 32, 33, 34, 35, 36, 37, 38, 39, 40, 41]" pbc="F F F"
Li      -0.32224097       0.05017810      -0.04689014  F        0        1
C        3.95028126      -1.55114876       2.60155307  T        1        2
C        3.96081377      -0.12060984       2.06072873  T        1        2
O        2.78481827      -0.08264463       1.23358847  T        1        2
C        2.36490880      -1.32996080       0.99657996  T        1        2
O        3.07019109      -2.23162849       1.68943456  T        1        2
O        1.46738886      -1.60963673       0.25041388  T        1        2
H        4.92339977      -2.03707796       2.57118395  T        1        2
H        3.52631092      -1.62293717       3.60428218  T        1        2
H        3.86350398       0.63847898       2.83417886  T        1        2
H        4.82812701       0.09140796       1.43359480  T        1        2
C       -0.69148650      -4.71406879      -0.90766260  F        0        1
C       -0.59020632      -4.37745891       0.57993024  F        0        1
O       -1.14530267      -3.05116666       0.63863767  F        0        1
C       -1.12065854      -2.51916569      -0.58226158  F        0        1
O       -0.82380493      -3.41623969      -1.51724031  F        0        1
O       -1.35133322      -1.35828092      -0.81536975  F        0        1
H        0.20052746      -5.19101638      -1.30828361  F        0        1
H       -1.57701261      -5.30079844      -1.15624534  F        0        1
H       -1.18380192      -5.02857036       1.21812650  F        0        1
H        0.44025393      -4.32582233       0.93394468  F        0        1
C       -3.08016509       2.54006745       2.79679392  F        0        1
C       -2.11659514       2.61108760       3.98351029  F        0        1
O       -1.12288613       1.62195965       3.65129949  F        0        1
C       -1.23984151       1.29219026       2.36757990  F        0        1
O       -2.30278751       1.85590287       1.79516950  F        0        1
O       -0.47105328       0.56552706       1.79116848  F        0        1
H       -3.96967667       1.94359137       3.00293429  F        0        1
H       -3.36444150       3.51419135       2.40464528  F        0        1
H       -1.61790481       3.57692790       4.07293158  F        0        1
H       -2.57197577       2.33553678       4.93239853  F        0        1
C        1.09679028       0.82538264      -4.44638068  F        0        1
C        0.63656889       2.28284708      -4.51093721  F        0        1
O        0.42712748       2.61389092      -3.12466805  F        0        1
C        0.37779432       1.49430820      -2.40765149  F        0        1
O        0.67788263       0.41667893      -3.13015828  F        0        1
O        0.09572885       1.46542794      -1.23614845  F        0        1
H        0.61214095       0.18059611      -5.17638288  F        0        1
H        2.18030855       0.71552783      -4.50779772  F        0        1
H        1.38389024       2.96111327      -4.91717010  F        0        1
H       -0.31056848       2.40867865      -5.03706696  F        0        1
41
Properties=species:S:1:pos:R:3:is_solvent:L:1:group_label:I:1:tags:I:1 Coordinates=T from=T ORCA-job=T Li1EC4_r08_charge_1_spin_1_liquid_t_traj_1_frame_0001=T E=T -1378.039361458507=T solvent_indices_0based="_JSON [1, 2, 3, 4, 5, 6, 7, 8, 9, 10]" complex_indices_0based="_JSON [0, 11, 12, 13, 14, 15, 16, 17, 18, 19, 20, 21, 22, 23, 24, 25, 26, 27, 28, 29, 30, 31, 32, 33, 34, 35, 36, 37, 38, 39, 40]" complex_indices_1based="_JSON [1, 12, 13, 14, 15, 16, 17, 18, 19, 20, 21, 22, 23, 24, 25, 26, 27, 28, 29, 30, 31, 32, 33, 34, 35, 36, 37, 38, 39, 40, 41]" pbc="F F F"
Li      -0.32224100       0.05017800      -0.04689000  F        0        1
C        3.95028100      -1.55114900       2.60155300  T        1        2
C        3.96081400      -0.12061000       2.06072900  T        1        2
O        2.78481800      -0.08264500       1.23358800  T        1        2
C        2.36490900      -1.32996100       0.99658000  T        1        2
O        3.07019100      -2.23162800       1.68943500  T        1        2
O        1.46738900      -1.60963700       0.25041400  T        1        2
H        4.92340000      -2.03707800       2.57118400  T        1        2
H        3.52631100      -1.62293700       3.60428200  T        1        2
H        3.86350400       0.63847900       2.83417900  T        1        2
H        4.82812700       0.09140800       1.43359500  T        1        2
C       -0.69148600      -4.71406900      -0.90766300  F        0        1
C       -0.59020600      -4.37745900       0.57993000  F        0        1
O       -1.14530300      -3.05116700       0.63863800  F        0        1
C       -1.12065900      -2.51916600      -0.58226200  F        0        1
O       -0.82380500      -3.41624000      -1.51724000  F        0        1
O       -1.35133300      -1.35828100      -0.81537000  F        0        1
H        0.20052700      -5.19101600      -1.30828400  F        0        1
H       -1.57701300      -5.30079800      -1.15624500  F        0        1
H       -1.18380200      -5.02857000       1.21812700  F        0        1
H        0.44025400      -4.32582200       0.93394500  F        0        1
C       -3.08016500       2.54006700       2.79679400  F        0        1
C       -2.11659500       2.61108800       3.98351000  F        0        1
O       -1.12288600       1.62196000       3.65129900  F        0        1
C       -1.23984200       1.29219000       2.36758000  F        0        1
O       -2.30278800       1.85590300       1.79516900  F        0        1
O       -0.47105300       0.56552700       1.79116800  F        0        1
H       -3.96967700       1.94359100       3.00293400  F        0        1
H       -3.36444100       3.51419100       2.40464500  F        0        1
H       -1.61790500       3.57692800       4.07293200  F        0        1
H       -2.57197600       2.33553700       4.93239900  F        0        1
C        1.09679000       0.82538300      -4.44638100  F        0        1
C        0.63656900       2.28284700      -4.51093700  F        0        1
O        0.42712700       2.61389100      -3.12466800  F        0        1
C        0.37779400       1.49430800      -2.40765100  F        0        1
O        0.67788300       0.41667900      -3.13015800  F        0        1
O        0.09572900       1.46542800      -1.23614800  F        0        1
H        0.61214100       0.18059600      -5.17638300  F        0        1
H        2.18030900       0.71552800      -4.50779800  F        0        1
H        1.38389000       2.96111300      -4.91717000  F        0        1
H       -0.31056800       2.40867900      -5.03706700  F        0        1
41
Properties=species:S:1:pos:R:3:is_solvent:L:1:group_label:I:1:tags:I:1 Coordinates=T from=T ORCA-job=T Li1EC4_r08_charge_1_spin_1_liquid_t_traj_1_frame_0002=T E=T -1378.044136291045=T solvent_indices_0based="_JSON [1, 2, 3, 4, 5, 6, 7, 8, 9, 10]" complex_indices_0based="_JSON [0, 11, 12, 13, 14, 15, 16, 17, 18, 19, 20, 21, 22, 23, 24, 25, 26, 27, 28, 29, 30, 31, 32, 33, 34, 35, 36, 37, 38, 39, 40]" complex_indices_1based="_JSON [1, 12, 13, 14, 15, 16, 17, 18, 19, 20, 21, 22, 23, 24, 25, 26, 27, 28, 29, 30, 31, 32, 33, 34, 35, 36, 37, 38, 39, 40, 41]" pbc="F F F"
Li       0.05797820       0.07718491       0.75564261  F        0        1
C        2.84897298       0.01913155       2.05852159  T        1        2
C        4.18567882      -0.47385961       1.51133684  T        1        2
O        3.83561696      -0.95648912       0.19729888  T        1        2
C        2.52082334      -1.14532084       0.12828757  T        1        2
O        1.90653846      -0.72665389       1.25888404  T        1        2
O        1.92605368      -1.60860226      -0.80110320  T        1        2
H        2.67715396      -0.22218991       3.10433655  T        1        2
H        2.67792068       1.08104981       1.87893957  T        1        2
H        4.92830523       0.31284251       1.39950747  T        1        2
H        4.59887130      -1.30687390       2.08121387  T        1        2
C       -0.70578340      -4.18430410      -1.68642464  F        0        1
C        0.14511187      -4.46059761      -0.44822407  F        0        1
O       -0.21797215      -3.37776692       0.42796868  F        0        1
C       -0.78212336      -2.40870542      -0.29068096  F        0        1
O       -1.03192679      -2.78875556      -1.54108970  F        0        1
O       -1.05394168      -1.31924518       0.14703374  F        0        1
H       -0.16756856      -4.31659695      -2.62263960  F        0        1
H       -1.63679774      -4.75270300      -1.70368991  F        0        1
H       -0.09174237      -5.39948864       0.04747234  F        0        1
H        1.21497969      -4.38986659      -0.64757818  F        0        1
C       -3.26143605       2.30312994       3.26835376  F        0        1
C       -2.36771569       2.71301634       4.44032874  F        0        1
O       -1.15690426       1.96863297       4.19459789  F        0        1
C       -1.16431612       1.51815379       2.94476904  F        0        1
O       -2.31739412       1.75670591       2.32499771  F        0        1
O       -0.22769052       0.95684415       2.43135247  F        0        1
H       -3.97494580       1.51978883       3.52643895  F        0        1
H       -3.77430246       3.13797517       2.79583302  F        0        1
H       -2.11914975       3.77489540       4.43820432  F        0        1
H       -2.75798540       2.42053109       5.41264347  F        0        1
C        0.63093005       0.00131361      -3.73045966  F        0        1
C        1.84572406       0.92505098      -3.81364531  F        0        1
O        2.05126898       1.29825930      -2.43602146  F        0        1
C        0.96555542       0.99038116      -1.73477707  F        0        1
O        0.04975873       0.36269858      -2.46346001  F        0        1
O        0.83426337       1.25331222      -0.56231133  F        0        1
H       -0.10791039       0.17248807      -4.51001441  F        0        1
H        0.90362896      -1.05379392      -3.68415254  F        0        1
H        2.74682753       0.43220911      -4.17189313  F        0        1
H        1.65685130       1.83334427      -4.38730386  F        0        1
41
Properties=species:S:1:pos:R:3:is_solvent:L:1:group_label:I:1:tags:I:1 Coordinates=T from=T ORCA-job=T Li1EC4_r08_charge_1_spin_1_liquid_t_traj_1_frame_0002=T E=T -1378.044136291045=T solvent_indices_0based="_JSON [1, 2, 3, 4, 5, 6, 7, 8, 9, 10]" complex_indices_0based="_JSON [0, 11, 12, 13, 14, 15, 16, 17, 18, 19, 20, 21, 22, 23, 24, 25, 26, 27, 28, 29, 30, 31, 32, 33, 34, 35, 36, 37, 38, 39, 40]" complex_indices_1based="_JSON [1, 12, 13, 14, 15, 16, 17, 18, 19, 20, 21, 22, 23, 24, 25, 26, 27, 28, 29, 30, 31, 32, 33, 34, 35, 36, 37, 38, 39, 40, 41]" pbc="F F F"
Li       0.05797800       0.07718500       0.75564300  F        0        1
C        2.84897300       0.01913200       2.05852200  T        1        2
C        4.18567900      -0.47386000       1.51133700  T        1        2
O        3.83561700      -0.95648900       0.19729900  T        1        2
C        2.52082300      -1.14532100       0.12828800  T        1        2
O        1.90653800      -0.72665400       1.25888400  T        1        2
O        1.92605400      -1.60860200      -0.80110300  T        1        2
H        2.67715400      -0.22219000       3.10433700  T        1        2
H        2.67792100       1.08105000       1.87894000  T        1        2
H        4.92830500       0.31284300       1.39950700  T        1        2
H        4.59887100      -1.30687400       2.08121400  T        1        2
C       -0.70578300      -4.18430400      -1.68642500  F        0        1
C        0.14511200      -4.46059800      -0.44822400  F        0        1
O       -0.21797200      -3.37776700       0.42796900  F        0        1
C       -0.78212300      -2.40870500      -0.29068100  F        0        1
O       -1.03192700      -2.78875600      -1.54109000  F        0        1
O       -1.05394200      -1.31924500       0.14703400  F        0        1
H       -0.16756900      -4.31659700      -2.62264000  F        0        1
H       -1.63679800      -4.75270300      -1.70369000  F        0        1
H       -0.09174200      -5.39948900       0.04747200  F        0        1
H        1.21498000      -4.38986700      -0.64757800  F        0        1
C       -3.26143600       2.30313000       3.26835400  F        0        1
C       -2.36771600       2.71301600       4.44032900  F        0        1
O       -1.15690400       1.96863300       4.19459800  F        0        1
C       -1.16431600       1.51815400       2.94476900  F        0        1
O       -2.31739400       1.75670600       2.32499800  F        0        1
O       -0.22769100       0.95684400       2.43135200  F        0        1
H       -3.97494600       1.51978900       3.52643900  F        0        1
H       -3.77430200       3.13797500       2.79583300  F        0        1
H       -2.11915000       3.77489500       4.43820400  F        0        1
H       -2.75798500       2.42053100       5.41264300  F        0        1
C        0.63093000       0.00131400      -3.73046000  F        0        1
C        1.84572400       0.92505100      -3.81364500  F        0        1
O        2.05126900       1.29825900      -2.43602100  F        0        1
C        0.96555500       0.99038100      -1.73477700  F        0        1
O        0.04975900       0.36269900      -2.46346000  F        0        1
O        0.83426300       1.25331200      -0.56231100  F        0        1
H       -0.10791000       0.17248800      -4.51001400  F        0        1
H        0.90362900      -1.05379400      -3.68415300  F        0        1
H        2.74682800       0.43220900      -4.17189300  F        0        1
H        1.65685100       1.83334400      -4.38730400  F        0        1
41
Properties=species:S:1:pos:R:3:is_solvent:L:1:group_label:I:1:tags:I:1 Coordinates=T from=T ORCA-job=T Li1EC4_r08_charge_1_spin_1_liquid_t_traj_1_frame_0003=T E=T -1378.038013390319=T solvent_indices_0based="_JSON [1, 2, 3, 4, 5, 6, 7, 8, 9, 10]" complex_indices_0based="_JSON [0, 11, 12, 13, 14, 15, 16, 17, 18, 19, 20, 21, 22, 23, 24, 25, 26, 27, 28, 29, 30, 31, 32, 33, 34, 35, 36, 37, 38, 39, 40]" complex_indices_1based="_JSON [1, 12, 13, 14, 15, 16, 17, 18, 19, 20, 21, 22, 23, 24, 25, 26, 27, 28, 29, 30, 31, 32, 33, 34, 35, 36, 37, 38, 39, 40, 41]" pbc="F F F"
Li      -0.83231680       0.15682361       0.83223737  F        0        1
C        4.82313117      -1.74688623       0.79977021  T        1        2
C        5.22785908      -0.99493787      -0.46651529  T        1        2
O        3.95840270      -0.61150889      -1.02611736  T        1        2
C        2.98199308      -1.33950616      -0.46366119  T        1        2
O        3.45652215      -2.10849778       0.52927511  T        1        2
O        1.83537732      -1.31110643      -0.80865365  T        1        2
H        5.39615401      -2.65587032       0.97051789  T        1        2
H        4.84109975      -1.11807465       1.69127138  T        1        2
H        5.80636658      -0.09401943      -0.27294990  T        1        2
H        5.74621895      -1.62704192      -1.18908671  T        1        2
C       -0.06030859      -4.63327514      -0.65096202  F        0        1
C        0.66878909      -4.27533864       0.64506796  F        0        1
O        0.01942103      -3.05496853       1.04566638  F        0        1
C       -0.64807641      -2.55536942       0.00811419  F        0        1
O       -0.68058869      -3.38898728      -1.02438223  F        0        1
O       -1.18520166      -1.47592589       0.01280805  F        0        1
H        0.60418366      -4.93984678      -1.45607127  F        0        1
H       -0.84611184      -5.37646344      -0.50917097  F        0        1
H        0.53753844      -5.00992486       1.43692953  F        0        1
H        1.72664553      -4.05949611       0.49709807  F        0        1
C       -4.33727218       2.84271086       2.93608297  F        0        1
C       -3.80518462       2.58207084       4.34625799  F        0        1
O       -2.85078172       1.52232600       4.13703129  F        0        1
C       -2.57001042       1.43228794       2.84166479  F        0        1
O       -3.33332724       2.23296224       2.09969802  F        0        1
O       -1.72092511       0.70568591       2.39144914  F        0        1
H       -5.28907876       2.34770923       2.73970483  F        0        1
H       -4.40259393       3.89788598       2.67984535  F        0        1
H       -3.27570109       3.43643824       4.76957835  F        0        1
H       -4.56332817       2.22834395       5.04157781  F        0        1
C        0.98470635       0.80081022      -3.21748367  F        0        1
C        2.16702709       1.68605860      -2.81582675  F        0        1
O        2.00913138       1.80804740      -1.38942740  F        0        1
C        0.81485412       1.35001408      -1.03771330  F        0        1
O        0.11952128       0.88783443      -2.07034212  F        0        1
O        0.40136281       1.36926428       0.09812422  F        0        1
H        0.43933781       1.16266687      -4.08640876  F        0        1
H        1.26385389      -0.24468992      -3.34489956  F        0        1
H        3.13354478       1.22657533      -3.01095464  F        0        1
H        2.12516543       2.68620582      -3.24844978  F        0        1
41
Properties=species:S:1:pos:R:3:is_solvent:L:1:group_label:I:1:tags:I:1 Coordinates=T from=T ORCA-job=T Li1EC4_r08_charge_1_spin_1_liquid_t_traj_1_frame_0003=T E=T -1378.038013390319=T solvent_indices_0based="_JSON [1, 2, 3, 4, 5, 6, 7, 8, 9, 10]" complex_indices_0based="_JSON [0, 11, 12, 13, 14, 15, 16, 17, 18, 19, 20, 21, 22, 23, 24, 25, 26, 27, 28, 29, 30, 31, 32, 33, 34, 35, 36, 37, 38, 39, 40]" complex_indices_1based="_JSON [1, 12, 13, 14, 15, 16, 17, 18, 19, 20, 21, 22, 23, 24, 25, 26, 27, 28, 29, 30, 31, 32, 33, 34, 35, 36, 37, 38, 39, 40, 41]" pbc="F F F"
Li      -0.83231700       0.15682400       0.83223700  F        0        1
C        4.82313100      -1.74688600       0.79977000  T        1        2
C        5.22785900      -0.99493800      -0.46651500  T        1        2
O        3.95840300      -0.61150900      -1.02611700  T        1        2
C        2.98199300      -1.33950600      -0.46366100  T        1        2
O        3.45652200      -2.10849800       0.52927500  T        1        2
O        1.83537700      -1.31110600      -0.80865400  T        1        2
H        5.39615400      -2.65587000       0.97051800  T        1        2
H        4.84110000      -1.11807500       1.69127100  T        1        2
H        5.80636700      -0.09401900      -0.27295000  T        1        2
H        5.74621900      -1.62704200      -1.18908700  T        1        2
C       -0.06030900      -4.63327500      -0.65096200  F        0        1
C        0.66878900      -4.27533900       0.64506800  F        0        1
O        0.01942100      -3.05496900       1.04566600  F        0        1
C       -0.64807600      -2.55536900       0.00811400  F        0        1
O       -0.68058900      -3.38898700      -1.02438200  F        0        1
O       -1.18520200      -1.47592600       0.01280800  F        0        1
H        0.60418400      -4.93984700      -1.45607100  F        0        1
H       -0.84611200      -5.37646300      -0.50917100  F        0        1
H        0.53753800      -5.00992500       1.43693000  F        0        1
H        1.72664600      -4.05949600       0.49709800  F        0        1
C       -4.33727200       2.84271100       2.93608300  F        0        1
C       -3.80518500       2.58207100       4.34625800  F        0        1
O       -2.85078200       1.52232600       4.13703100  F        0        1
C       -2.57001000       1.43228800       2.84166500  F        0        1
O       -3.33332700       2.23296200       2.09969800  F        0        1
O       -1.72092500       0.70568600       2.39144900  F        0        1
H       -5.28907900       2.34770900       2.73970500  F        0        1
H       -4.40259400       3.89788600       2.67984500  F        0        1
H       -3.27570100       3.43643800       4.76957800  F        0        1
H       -4.56332800       2.22834400       5.04157800  F        0        1
C        0.98470600       0.80081000      -3.21748400  F        0        1
C        2.16702700       1.68605900      -2.81582700  F        0        1
O        2.00913100       1.80804700      -1.38942700  F        0        1
C        0.81485400       1.35001400      -1.03771300  F        0        1
O        0.11952100       0.88783400      -2.07034200  F        0        1
O        0.40136300       1.36926400       0.09812400  F        0        1
H        0.43933800       1.16266700      -4.08640900  F        0        1
H        1.26385400      -0.24469000      -3.34490000  F        0        1
H        3.13354500       1.22657500      -3.01095500  F        0        1
H        2.12516500       2.68620600      -3.24845000  F        0        1
41
Properties=species:S:1:pos:R:3:is_solvent:L:1:group_label:I:1:tags:I:1 Coordinates=T from=T ORCA-job=T Li1EC4_r08_charge_1_spin_1_liquid_t_traj_1_frame_0004=T E=T -1378.038526352859=T solvent_indices_0based="_JSON [1, 2, 3, 4, 5, 6, 7, 8, 9, 10]" complex_indices_0based="_JSON [0, 11, 12, 13, 14, 15, 16, 17, 18, 19, 20, 21, 22, 23, 24, 25, 26, 27, 28, 29, 30, 31, 32, 33, 34, 35, 36, 37, 38, 39, 40]" complex_indices_1based="_JSON [1, 12, 13, 14, 15, 16, 17, 18, 19, 20, 21, 22, 23, 24, 25, 26, 27, 28, 29, 30, 31, 32, 33, 34, 35, 36, 37, 38, 39, 40, 41]" pbc="F F F"
Li      -1.06033302       0.36297165       0.89234290  F        0        1
C        5.27063411      -2.93144641      -0.74953752  T        1        2
C        5.22608148      -2.06788787      -2.00539938  T        1        2