41
Properties=species:S:1:pos:R:3:is_solvent:L:1:group_label:I:1:tags:I:1 Coordinates=T from=T ORCA-job=T Li1EC4_r02_charge_1_spin_1_liquid_t_traj_4_frame_0000=T E=T -1378.044487538146=T solvent_indices_0based="_JSON [31, 32, 33, 34, 35, 36, 37, 38, 39, 40]" complex_indices_0based="_JSON [0, 1, 2, 3, 4, 5, 6, 7, 8, 9, 10, 11, 12, 13, 14, 15, 16, 17, 18, 19, 20, 21, 22, 23, 24, 25, 26, 27, 28, 29, 30]" complex_indices_1based="_JSON [1, 2, 3, 4, 5, 6, 7, 8, 9, 10, 11, 12, 13, 14, 15, 16, 17, 18, 19, 20, 21, 22, 23, 24, 25, 26, 27, 28, 29, 30, 31]" pbc="F F F"
Li      -0.15513293       0.36154558      -0.24852781  F        0        1
C        3.62508990       0.58293781       2.29510920  F        0        1
C        3.84387795       2.09518893       2.29616559  F        0        1
O        2.67549102       2.58416550       1.61046292  F        0        1
C        2.09353306       1.57662031       0.95972727  F        0        1
O        2.67118122       0.40400290       1.23184691  F        0        1
O        1.16134289       1.71134442       0.21095770  F        0        1
H        4.51822000       0.00948003       2.05659096  F        0        1
H        3.17673596       0.21758091       3.22023075  F        0        1
H        3.86690843       2.53406238       3.29132523  F        0        1
H        4.72508425       2.40033550       1.72982070  F        0        1
C        1.45984013      -0.34755267      -4.59089151  F        0        1
C        0.96682584      -1.78948854      -4.71730907  F        0        1
O        0.72141776      -2.16481884      -3.34899788  F        0        1
C        0.67605080      -1.06858150      -2.59182424  F        0        1
O        1.01490599       0.02741245      -3.27412952  F        0        1
O        0.37031761      -1.07164960      -1.42850666  F        0        1
H        2.54714589      -0.26362868      -4.62080753  F        0        1
H        1.01111047       0.33245872      -5.31193733  F        0        1
H        0.02806599      -1.87200644      -5.26674171  F        0        1
H        1.70623101      -2.47063722      -5.13313956  F        0        1
C       -3.15084981       4.35645975      -1.10232955  F        0        1
C       -2.40663531       4.33615316       0.23189432  F        0        1
O       -1.94159675       2.97618996       0.31156689  F        0        1
C       -1.99231904       2.42392304      -0.90260780  F        0        1
O       -2.60499960       3.21223220      -1.78602380  F        0        1
O       -1.54334926       1.34001869      -1.17033767  F        0        1
H       -4.22633587       4.20800775      -0.99413712  F        0        1
H       -2.95247760       5.24209041      -1.70213896  F        0        1
H       -1.53695471       4.99487688       0.24414411  F        0        1
H       -3.04185741       4.53428624       1.09253116  F        0        1
C       -2.79367792      -3.09693723       1.36844009  T        1        2
C       -1.92929388      -3.42744651       2.58597039  T        1        2
O       -1.13462566      -2.23780712       2.74735858  T        1        2
C       -1.20449883      -1.50540908       1.63522703  T        1        2
O       -2.08760063      -1.99749304       0.76478450  T        1        2
O       -0.54995701      -0.51363215       1.44555531  T        1        2
H       -2.85421965      -3.90581949       0.64336116  T        1        2
H       -3.79465609      -2.75475721       1.63494664  T        1        2
H       -2.49983778      -3.58574663       3.49872242  T        1        2
H       -1.25506251      -4.26748193       2.41359600  T        1        2
41
Properties=species:S:1:pos:R:3:is_solvent:L:1:group_label:I:1:tags:I:1 Coordinates=T from=T ORCA-job=T Li1EC4_r02_charge_1_spin_1_liquid_t_traj_4_frame_0000=T E=T -1378.044487538146=T solvent_indices_0based="_JSON [31, 32, 33, 34, 35, 36, 37, 38, 39, 40]" complex_indices_0based="_JSON [0, 1, 2, 3, 4, 5, 6, 7, 8, 9, 10, 11, 12, 13, 14, 15, 16, 17, 18, 19, 20, 21, 22, 23, 24, 25, 26, 27, 28, 29, 30]" complex_indices_1based="_JSON [1, 2, 3, 4, 5, 6, 7, 8, 9, 10, 11, 12, 13, 14, 15, 16, 17, 18, 19, 20, 21, 22, 23, 24, 25, 26, 27, 28, 29, 30, 31]" pbc="F F F"
Li      -0.15513300       0.36154600      -0.24852800  F        0        1
C        3.62509000       0.58293800       2.29510900  F        0        1
C        3.84387800       2.09518900       2.29616600  F        0        1
O        2.67549100       2.58416600       1.61046300  F        0        1
C        2.09353300       1.57662000       0.95972700  F        0        1
O        2.67118100       0.40400300       1.23184700  F        0        1
O        1.16134300       1.71134400       0.21095800  F        0        1
H        4.51822000       0.00948000       2.05659100  F        0        1
H        3.17673600       0.21758100       3.22023100  F        0        1
H        3.86690800       2.53406200       3.29132500  F        0        1
H        4.72508400       2.40033600       1.72982100  F        0        1
C        1.45984000      -0.34755300      -4.59089200  F        0        1
C        0.96682600      -1.78948900      -4.71730900  F        0        1
O        0.72141800      -2.16481900      -3.34899800  F        0        1
C        0.67605100      -1.06858200      -2.59182400  F        0        1
O        1.01490600       0.02741200      -3.27413000  F        0        1
O        0.37031800      -1.07165000      -1.42850700  F        0        1
H        2.54714600      -0.26362900      -4.62080800  F        0        1
H        1.01111000       0.33245900      -5.31193700  F        0        1
H        0.02806600      -1.87200600      -5.26674200  F        0        1
H        1.70623100      -2.47063700      -5.13314000  F        0        1
C       -3.15085000       4.35646000      -1.10233000  F        0        1
C       -2.40663500       4.33615300       0.23189400  F        0        1
O       -1.94159700       2.97619000       0.31156700  F        0        1
C       -1.99231900       2.42392300      -0.90260800  F        0        1
O       -2.60500000       3.21223200      -1.78602400  F        0        1
O       -1.54334900       1.34001900      -1.17033800  F        0        1
H       -4.22633600       4.20800800      -0.99413700  F        0        1
H       -2.95247800       5.24209000      -1.70213900  F        0        1
H       -1.53695500       4.99487700       0.24414400  F        0        1
H       -3.04185700       4.53428600       1.09253100  F        0        1
C       -2.79367800      -3.09693700       1.36844000  T        1        2
C       -1.92929400      -3.42744700       2.58597000  T        1        2
O       -1.13462600      -2.23780700       2.74735900  T        1        2
C       -1.20449900      -1.50540900       1.63522700  T        1        2
O       -2.08760100      -1.99749300       0.76478500  T        1        2
O       -0.54995700      -0.51363200       1.44555500  T        1        2
H       -2.85422000      -3.90581900       0.64336100  T        1        2
H       -3.79465600      -2.75475700       1.63494700  T        1        2
H       -2.49983800      -3.58574700       3.49872200  T        1        2
H       -1.25506300      -4.26748200       2.41359600  T        1        2
41
Properties=species:S:1:pos:R:3:is_solvent:L:1:group_label:I:1:tags:I:1 Coordinates=T from=T ORCA-job=T Li1EC4_r02_charge_1_spin_1_liquid_t_traj_4_frame_0001=T E=T -1378.039626357257=T solvent_indices_0based="_JSON [31, 32, 33, 34, 35, 36, 37, 38, 39, 40]" complex_indices_0based="_JSON [0, 1, 2, 3, 4, 5, 6, 7, 8, 9, 10, 11, 12, 13, 14, 15, 16, 17, 18, 19, 20, 21, 22, 23, 24, 25, 26, 27, 28, 29, 30]" complex_indices_1based="_JSON [1, 2, 3, 4, 5, 6, 7, 8, 9, 10, 11, 12, 13, 14, 15, 16, 17, 18, 19, 20, 21, 22, 23, 24, 25, 26, 27, 28, 29, 30, 31]" pbc="F F F"
Li      -0.12473047       0.58372251      -0.67810505  F        0        1
C        3.21611433       0.46787933       2.26210130  F        0        1
C        2.98766484       1.87400323       2.81425096  F        0        1
O        1.97292235       2.39601552       1.93549117  F        0        1
C        1.89507187       1.62897263       0.85161487  F        0        1
O        2.70589275       0.57460890       0.92072667  F        0        1
O        1.17903474       1.86743997      -0.08947789  F        0        1
H        4.26433219       0.18125678       2.21140020  F        0        1
H        2.63381374      -0.29288897       2.78366460  F        0        1
H        2.60112286       1.88799846       3.83101331  F        0        1
H        3.86911696       2.51238779       2.73643085  F        0        1
C        1.46617135      -0.77382971      -4.87479034  F        0        1
C        1.14141796      -2.26094401      -4.72275315  F        0        1
O        0.87237593      -2.38759529      -3.31281566  F        0        1
C        0.67999745      -1.17898091      -2.79090593  F        0        1
O        0.92425413      -0.20508432      -3.66708994  F        0        1
O        0.32719888      -0.98963908      -1.65463088  F        0        1
H        2.53762702      -0.57061303      -4.89601481  F        0        1
H        0.97841141      -0.30286496      -5.72550453  F        0        1
H        0.24612457      -2.56155480      -5.26843314  F        0        1
H        1.97160915      -2.91736907      -4.97468004  F        0        1
C       -3.52241620       4.35238523      -0.71341835  F        0        1
C       -2.62405715       4.30209419       0.52285950  F        0        1
O       -2.03374394       2.99138826       0.43072076  F        0        1
C       -2.19469164       2.52471809      -0.80676043  F        0        1
O       -2.98120520       3.30634787      -1.54230232  F        0        1
O       -1.69224379       1.50873626      -1.21626087  F        0        1
H       -4.56370441       4.11081382      -0.49548404  F        0        1
H       -3.46228662       5.29076604      -1.26053839  F        0        1
H       -1.82021961       5.03907310       0.49809051  F        0        1
H       -3.16695122       4.36999530       1.46316298  F        0        1
C       -2.37817520      -2.86438633       1.64846407  T        1        2
C       -1.36429166      -3.29770184       2.70863097  T        1        2
O       -0.52737939      -2.13577889       2.84541271  T        1        2
C       -0.72467221      -1.32053679       1.80360895  T        1        2
O       -1.73179603      -1.73908677       1.02924124  T        1        2
O       -0.07767457      -0.33210356       1.59082136  T        1        2
H       -2.56243630      -3.61926195       0.88676429  T        1        2
H       -3.32309210      -2.52555745       2.07614151  T        1        2
H       -1.81086471      -3.51829817       3.67605400  T        1        2
H       -0.74174522      -4.13307654       2.38463238  T        1        2
41
Properties=species:S:1:pos:R:3:is_solvent:L:1:group_label:I:1:tags:I:1 Coordinates=T from=T ORCA-job=T Li1EC4_r02_charge_1_spin_1_liquid_t_traj_4_frame_0001=T E=T -1378.039626357257=T solvent_indices_0based="_JSON [31, 32, 33, 34, 35, 36, 37, 38, 39, 40]" complex_indices_0based="_JSON [0, 1, 2, 3, 4, 5, 6, 7, 8, 9, 10, 11, 12, 13, 14, 15, 16, 17, 18, 19, 20, 21, 22, 23, 24, 25, 26, 27, 28, 29, 30]" complex_indices_1based="_JSON [1, 2, 3, 4, 5, 6, 7, 8, 9, 10, 11, 12, 13, 14, 15, 16, 17, 18, 19, 20, 21, 22, 23, 24, 25, 26, 27, 28, 29, 30, 31]" pbc="F F F"
Li      -0.12473000       0.58372300      -0.67810500  F        0        1
C        3.21611400       0.46787900       2.26210100  F        0        1
C        2.98766500       1.87400300       2.81425100  F        0        1
O        1.97292200       2.39601600       1.93549100  F        0        1
C        1.89507200       1.62897300       0.85161500  F        0        1
O        2.70589300       0.57460900       0.92072700  F        0        1
O        1.17903500       1.86744000      -0.08947800  F        0        1
H        4.26433200       0.18125700       2.21140000  F        0        1
H        2.63381400      -0.29288900       2.78366500  F        0        1
H        2.60112300       1.88799800       3.83101300  F        0        1
H        3.86911700       2.51238800       2.73643100  F        0        1
C        1.46617100      -0.77383000      -4.87479000  F        0        1
C        1.14141800      -2.26094400      -4.72275300  F        0        1
O        0.87237600      -2.38759500      -3.31281600  F        0        1
C        0.67999700      -1.17898100      -2.79090600  F        0        1
O        0.92425400      -0.20508400      -3.66709000  F        0        1
O        0.32719900      -0.98963900      -1.65463100  F        0        1
H        2.53762700      -0.57061300      -4.89601500  F        0        1
H        0.97841100      -0.30286500      -5.72550500  F        0        1
H        0.24612500      -2.56155500      -5.26843300  F        0        1
H        1.97160900      -2.91736900      -4.97468000  F        0        1
C       -3.52241600       4.35238500      -0.71341800  F        0        1
C       -2.62405700       4.30209400       0.52286000  F        0        1
O       -2.03374400       2.99138800       0.43072100  F        0        1
C       -2.19469200       2.52471800      -0.80676000  F        0        1
O       -2.98120500       3.30634800      -1.54230200  F        0        1
O       -1.69224400       1.50873600      -1.21626100  F        0        1
H       -4.56370400       4.11081400      -0.49548400  F        0        1
H       -3.46228700       5.29076600      -1.26053800  F        0        1
H       -1.82022000       5.03907300       0.49809100  F        0        1
H       -3.16695100       4.36999500       1.46316300  F        0        1
C       -2.37817500      -2.86438600       1.64846400  T        1        2
C       -1.36429200      -3.29770200       2.70863100  T        1        2
O       -0.52737900      -2.13577900       2.84541300  T        1        2
C       -0.72467200      -1.32053700       1.80360900  T        1        2
O       -1.73179600      -1.73908700       1.02924100  T        1        2
O       -0.07767500      -0.33210400       1.59082100  T        1        2
H       -2.56243600      -3.61926200       0.88676400  T        1        2
H       -3.32309200      -2.52555700       2.07614200  T        1        2
H       -1.81086500      -3.51829800       3.67605400  T        1        2
H       -0.74174500      -4.13307700       2.38463200  T        1        2
41
Properties=species:S:1:pos:R:3:is_solvent:L:1:group_label:I:1:tags:I:1 Coordinates=T from=T ORCA-job=T Li1EC4_r02_charge_1_spin_1_liquid_t_traj_4_frame_0002=T E=T -1378.041927226783=T solvent_indices_0based="_JSON [31, 32, 33, 34, 35, 36, 37, 38, 39, 40]" complex_indices_0based="_JSON [0, 1, 2, 3, 4, 5, 6, 7, 8, 9, 10, 11, 12, 13, 14, 15, 16, 17, 18, 19, 20, 21, 22, 23, 24, 25, 26, 27, 28, 29, 30]" complex_indices_1based="_JSON [1, 2, 3, 4, 5, 6, 7, 8, 9, 10, 11, 12, 13, 14, 15, 16, 17, 18, 19, 20, 21, 22, 23, 24, 25, 26, 27, 28, 29, 30, 31]" pbc="F F F"
Li      -0.82337816       0.32941143      -0.17550070  F        0        1
C        3.56940883       0.20876271       0.93177479  F        0        1
C        3.49067066       1.41882294       1.86359277  F        0        1
O        2.16347307       1.92412237       1.62026773  F        0        1
C        1.65426886       1.34148456       0.54658798  F        0        1
O        2.49360177       0.45352354       0.00387290  F        0        1
O        0.56560050       1.59793198       0.09269794  F        0        1
H        4.50063315       0.14968738       0.37202292  F        0        1
H        3.36154117      -0.72917914       1.44568659  F        0        1
H        3.56683698       1.15731912       2.91674631  F        0        1
H        4.20347402       2.20620267       1.61579449  F        0        1
C        2.11640424      -0.71942378      -3.46598566  F        0        1
C        2.22137185      -2.22724931      -3.24215643  F        0        1
O        1.41228529      -2.42669707      -2.06511244  F        0        1
C        0.64153414      -1.36040045      -1.88303226  F        0        1
O        0.92221360      -0.37878588      -2.73594034  F        0        1
O       -0.22262328      -1.29145895      -1.04238319  F        0        1
H        2.94782962      -0.16390175      -3.02974968  F        0        1
H        1.97714716      -0.43666124      -4.50696810  F        0        1
H        1.78877960      -2.81123324      -4.05564204  F        0        1
H        3.23057200      -2.57196824      -3.02804598  F        0        1
C       -4.34585673       3.94414390      -0.52768910  F        0        1
C       -3.52787924       3.96404482       0.76392299  F        0        1
O       -2.93317168       2.65033414       0.78066712  F        0        1
C       -3.01509260       2.11856043      -0.43880752  F        0        1
O       -3.75726961       2.85196687      -1.26090427  F        0        1
O       -2.48364231       1.08442051      -0.75971759  F        0        1
H       -5.40011954       3.71621764      -0.36409293  F        0        1
H       -4.24893208       4.84925513      -1.12331041  F        0        1
H       -2.72328762       4.70026458       0.75076981  F        0        1
H       -4.12953431       4.08089010       1.66290437  F        0        1
C       -2.52666374      -1.59707540       1.52119045  T        1        2
C       -1.90798468      -2.96285955       1.83637103  T        1        2
O       -0.56950623      -2.63825218       2.25239356  T        1        2
C       -0.27942932      -1.38427816       1.92174615  T        1        2
O       -1.38141435      -0.72752871       1.47678136  T        1        2
O        0.79297214      -0.86549284       1.97991873  T        1        2
H       -3.02220007      -1.56216598       0.55246134  T        1        2
H       -3.19753090      -1.23173733       2.29942451  T        1        2
H       -2.40403920      -3.48724392       2.65050029  T        1        2
H       -1.84070735      -3.60735162       0.95966131  T        1        2
41
Properties=species:S:1:pos:R:3:is_solvent:L:1:group_label:I:1:tags:I:1 Coordinates=T from=T ORCA-job=T Li1EC4_r02_charge_1_spin_1_liquid_t_traj_4_frame_0002=T E=T -1378.041927226783=T solvent_indices_0based="_JSON [31, 32, 33, 34, 35, 36, 37, 38, 39, 40]" complex_indices_0based="_JSON [0, 1, 2, 3, 4, 5, 6, 7, 8, 9, 10, 11, 12, 13, 14, 15, 16, 17, 18, 19, 20, 21, 22, 23, 24, 25, 26, 27, 28, 29, 30]" complex_indices_1based="_JSON [1, 2, 3, 4, 5, 6, 7, 8, 9, 10, 11, 12, 13, 14, 15, 16, 17, 18, 19, 20, 21, 22, 23, 24, 25, 26, 27, 28, 29, 30, 31]" pbc="F F F"
Li      -0.82337800       0.32941100      -0.17550100  F        0        1
C        3.56940900       0.20876300       0.93177500  F        0        1
C        3.49067100       1.41882300       1.86359300  F        0        1
O        2.16347300       1.92412200       1.62026800  F        0        1
C        1.65426900       1.34148500       0.54658800  F        0        1
O        2.49360200       0.45352400       0.00387300  F        0        1
O        0.56560100       1.59793200       0.09269800  F        0        1
H        4.50063300       0.14968700       0.37202300  F        0        1
H        3.36154100      -0.72917900       1.44568700  F        0        1
H        3.56683700       1.15731900       2.91674600  F        0        1
H        4.20347400       2.20620300       1.61579400  F        0        1
C        2.11640400      -0.71942400      -3.46598600  F        0        1
C        2.22137200      -2.22724900      -3.24215600  F        0        1
O        1.41228500      -2.42669700      -2.06511200  F        0        1
C        0.64153400      -1.36040000      -1.88303200  F        0        1
O        0.92221400      -0.37878600      -2.73594000  F        0        1
O       -0.22262300      -1.29145900      -1.04238300  F        0        1
H        2.94783000      -0.16390200      -3.02975000  F        0        1
H        1.97714700      -0.43666100      -4.50696800  F        0        1
H        1.78878000      -2.81123300      -4.05564200  F        0        1
H        3.23057200      -2.57196800      -3.02804600  F        0        1
C       -4.34585700       3.94414400      -0.52768900  F        0        1
C       -3.52787900       3.96404500       0.76392300  F        0        1
O       -2.93317200       2.65033400       0.78066700  F        0        1
C       -3.01509300       2.11856000      -0.43880800  F        0        1
O       -3.75727000       2.85196700      -1.26090400  F        0        1
O       -2.48364200       1.08442100      -0.75971800  F        0        1
H       -5.40012000       3.71621800      -0.36409300  F        0        1
H       -4.24893200       4.84925500      -1.12331000  F        0        1
H       -2.72328800       4.70026500       0.75077000  F        0        1
H       -4.12953400       4.08089000       1.66290400  F        0        1
C       -2.52666400      -1.59707500       1.52119000  T        1        2
C       -1.90798500      -2.96286000       1.83637100  T        1        2
O       -0.56950600      -2.63825200       2.25239400  T        1        2
C       -0.27942900      -1.38427800       1.92174600  T        1        2
O       -1.38141400      -0.72752900       1.47678100  T        1        2
O        0.79297200      -0.86549300       1.97991900  T        1        2
H       -3.02220000      -1.56216600       0.55246100  T        1        2
H       -3.19753100      -1.23173700       2.29942500  T        1        2
H       -2.40403900      -3.48724400       2.65050000  T        1        2
H       -1.84070700      -3.60735200       0.95966100  T        1        2
41
Properties=species:S:1:pos:R:3:is_solvent:L:1:group_label:I:1:tags:I:1 Coordinates=T from=T ORCA-job=T Li1EC4_r02_charge_1_spin_1_liquid_t_traj_4_frame_0003=T E=T -1378.036755101986=T solvent_indices_0based="_JSON [31, 32, 33, 34, 35, 36, 37, 38, 39, 40]" complex_indices_0based="_JSON [0, 1, 2, 3, 4, 5, 6, 7, 8, 9, 10, 11, 12, 13, 14, 15, 16, 17, 18, 19, 20, 21, 22, 23, 24, 25, 26, 27, 28, 29, 30]" complex_indices_1based="_JSON [1, 2, 3, 4, 5, 6, 7, 8, 9, 10, 11, 12, 13, 14, 15, 16, 17, 18, 19, 20, 21, 22, 23, 24, 25, 26, 27, 28, 29, 30, 31]" pbc="F F F"
Li       0.73161848       0.39111306      -1.34390628  F        0        1
C        2.00205328      -1.63240602       2.28333456  F        0        1
C        2.37037346      -0.45550472       3.18698291  F        0        1
O        1.99792561       0.68778947       2.39262813  F        0        1
C        1.80103893       0.30106603       1.13723169  F        0        1
O        1.92643281      -1.01650655       0.98524816  F        0        1
O        1.55067119       1.05463638       0.22888865  F        0        1
H        2.75899254      -2.41304899       2.24992554  F        0        1
H        1.02317329      -2.05208802       2.51482532  F        0        1
H        1.79987964      -0.42726507       4.11246747  F        0        1
H        3.43931707      -0.39159952       3.39486517  F        0        1
C        2.24202516       0.45082262      -6.04647135  F        0        1
C        2.92870717      -0.90692941      -5.89090455  F        0        1
O        2.94347501      -1.09549742      -4.46213905  F        0        1
C        2.09845398      -0.24004753      -3.89626054  F        0        1
O        1.58972979       0.62511220      -4.77246320  F        0        1
O        1.82852922      -0.24741665      -2.72262936  F        0        1
H        2.94571799       1.27296865      -6.18264390  F        0        1
H        1.48336546       0.47200560      -6.82581003  F        0        1
H        2.36315701      -1.72691165      -6.33514841  F        0        1
H        3.95580025      -0.92174482      -6.24907805  F        0        1
C       -4.21545699       0.66933805      -0.17600857  F        0        1
C       -3.61265876       2.07887591      -0.16821809  F        0        1
O       -2.25609172       1.85927240      -0.59287155  F        0        1
C       -2.11384621       0.60548529      -1.01293749  F        0        1
O       -3.21861583      -0.11304767      -0.85637480  F        0        1
O       -1.10474011       0.17396336      -1.51021411  F        0        1
H       -4.34111822       0.25916877       0.82488467  F        0        1
H       -5.14611874       0.59708762      -0.73584424  F        0        1
H       -4.08623452       2.75392574      -0.88144691  F        0        1
H       -3.59001386       2.52956696       0.82132554  F        0        1
C       -2.86504443       1.07274743       4.14721949  T        1        2
C       -2.00457116       0.04217496       4.87230677  T        1        2
O       -1.01554904      -0.29137754       3.88316145  T        1        2
C       -1.45198652       0.08197780       2.66659244  T        1        2
O       -2.59699196       0.78693757       2.76192161  T        1        2
O       -0.89728419      -0.17439989       1.64111097  T        1        2
H       -3.93191261       0.95708034       4.32787514  T        1        2
H       -2.55831011       2.09995810       4.35164940  T        1        2
H       -1.49957831       0.43631232       5.75155172  T        1        2
H       -2.55549949      -0.86420190       5.12947776  T        1        2
41
Properties=species:S:1:pos:R:3:is_solvent:L:1:group_label:I:1:tags:I:1 Coordinates=T from=T ORCA-job=T Li1EC4_r02_charge_1_spin_1_liquid_t_traj_4_frame_0003=T E=T -1378.036755101986=T solvent_indices_0based="_JSON [31, 32, 33, 34, 35, 36, 37, 38, 39, 40]" complex_indices_0based="_JSON [0, 1, 2, 3, 4, 5, 6, 7, 8, 9, 10, 11, 12, 13, 14, 15, 16, 17, 18, 19, 20, 21, 22, 23, 24, 25, 26, 27, 28, 29, 30]" complex_indices_1based="_JSON [1, 2, 3, 4, 5, 6, 7, 8, 9, 10, 11, 12, 13, 14, 15, 16, 17, 18, 19, 20, 21, 22, 23, 24, 25, 26, 27, 28, 29, 30, 31]" pbc="F F F"
Li       0.73161800       0.39111300      -1.34390600  F        0        1
C        2.00205300      -1.63240600       2.28333500  F        0        1
C        2.37037300      -0.45550500       3.18698300  F        0        1
O        1.99792600       0.68778900       2.39262800  F        0        1
C        1.80103900       0.30106600       1.13723200  F        0        1
O        1.92643300      -1.01650700       0.98524800  F        0        1
O        1.55067100       1.05463600       0.22888900  F        0        1
H        2.75899300      -2.41304900       2.24992600  F        0        1
H        1.02317300      -2.05208800       2.51482500  F        0        1
H        1.79988000      -0.42726500       4.11246700  F        0        1
H        3.43931700      -0.39160000       3.39486500  F        0        1
C        2.24202500       0.45082300      -6.04647100  F        0        1
C        2.92870700      -0.90692900      -5.89090500  F        0        1
O        2.94347500      -1.09549700      -4.46213900  F        0        1
C        2.09845400      -0.24004800      -3.89626100  F        0        1
O        1.58973000       0.62511200      -4.77246300  F        0        1
O        1.82852900      -0.24741700      -2.72262900  F        0        1
H        2.94571800       1.27296900      -6.18264400  F        0        1
H        1.48336500       0.47200600      -6.82581000  F        0        1
H        2.36315700      -1.72691200      -6.33514800  F        0        1
H        3.95580000      -0.92174500      -6.24907800  F        0        1
C       -4.21545700       0.66933800      -0.17600900  F        0        1
C       -3.61265900       2.07887600      -0.16821800  F        0        1
O       -2.25609200       1.85927200      -0.59287200  F        0        1
C       -2.11384600       0.60548500      -1.01293700  F        0        1
O       -3.21861600      -0.11304800      -0.85637500  F        0        1
O       -1.10474000       0.17396300      -1.51021400  F        0        1
H       -4.34111800       0.25916900       0.82488500  F        0        1
H       -5.14611900       0.59708800      -0.73584400  F        0        1
H       -4.08623500       2.75392600      -0.88144700  F        0        1
H       -3.59001400       2.52956700       0.82132600  F        0        1
C       -2.86504400       1.07274700       4.14721900  T        1        2
C       -2.00457100       0.04217500       4.87230700  T        1        2
O       -1.01554900      -0.29137800       3.88316100  T        1        2
C       -1.45198700       0.08197800       2.66659200  T        1        2
O       -2.59699200       0.78693800       2.76192200  T        1        2
O       -0.89728400      -0.17440000       1.64111100  T        1        2
H       -3.93191300       0.95708000       4.32787500  T        1        2
H       -2.55831000       2.09995800       4.35164900  T        1        2
H       -1.49957800       0.43631200       5.75155200  T        1        2
H       -2.55549900      -0.86420200       5.12947800  T        1        2
41
Properties=species:S:1:pos:R:3:is_solvent:L:1:group_label:I:1:tags:I:1 Coordinates=T from=T ORCA-job=T Li1EC4_r02_charge_1_spin_1_liquid_t_traj_4_frame_0004=T E=T -1378.039282408890=T solvent_indices_0based="_JSON [31, 32, 33, 34, 35, 36, 37, 38, 39, 40]" complex_indices_0based="_JSON [0, 1, 2, 3, 4, 5, 6, 7, 8, 9, 10, 11, 12, 13, 14, 15, 16, 17, 18, 19, 20, 21, 22, 23, 24, 25, 26, 27, 28, 29, 30]" complex_indices_1based="_JSON [1, 2, 3, 4, 5, 6, 7, 8, 9, 10, 11, 12, 13, 14, 15, 16, 17, 18, 19, 20, 21, 22, 23, 24, 25, 26, 27, 28, 29, 30, 31]" pbc="F F F"
Li       0.71269689      -0.09092958      -1.42614214  F        0        1
C        1.03883085      -2.42800708       2.34244464  F        0        1
C        1.77988615      -1.42931063       3.22973438  F        0        1
O        1.77677158      -0.22917716       2.42999014  F        0        1