41
Properties=species:S:1:pos:R:3:is_solvent:L:1:group_label:I:1:tags:I:1 Coordinates=T from=T ORCA-job=T Li1EC4_r06_charge_1_spin_1_liquid_t_traj_3_frame_0000=T E=T -1378.044771814785=T solvent_indices_0based="_JSON [21, 22, 23, 24, 25, 26, 27, 28, 29, 30]" complex_indices_0based="_JSON [0, 1, 2, 3, 4, 5, 6, 7, 8, 9, 10, 11, 12, 13, 14, 15, 16, 17, 18, 19, 20, 31, 32, 33, 34, 35, 36, 37, 38, 39, 40]" complex_indices_1based="_JSON [1, 2, 3, 4, 5, 6, 7, 8, 9, 10, 11, 12, 13, 14, 15, 16, 17, 18, 19, 20, 21, 32, 33, 34, 35, 36, 37, 38, 39, 40, 41]" pbc="F F F"
Li       1.32355096       0.21744570      -0.95693147  F        0        1
C        4.71458992       1.48441593       1.86755464  F        0        1
C        5.25859124       2.67511583       1.07981320  F        0        1
O        4.48432422       2.63176186      -0.13290930  F        0        1
C        3.41193357       1.86193452       0.05763772  F        0        1
O        3.43537123       1.25659037       1.24676292  F        0        1
O        2.52764740       1.73551688      -0.74832332  F        0        1
H        5.31583342       0.58178672       1.74868725  F        0        1
H        4.55226878       1.69232288       2.92300042  F        0        1
H        5.07297104       3.63129655       1.57159432  F        0        1
H        6.31114025       2.58519039       0.81974386  F        0        1
C        1.40699659       1.28318596      -5.92313076  F        0        1
C        2.76104603       1.23352814      -5.21621564  F        0        1
O        2.43596869       0.62018505      -3.95515826  F        0        1
C        1.11773727       0.69637262      -3.75728574  F        0        1
O        0.47541153       1.15172708      -4.83287659  F        0        1
O        0.57039067       0.38697405      -2.73157589  F        0        1
H        1.21215163       2.22627899      -6.42933598  F        0        1
H        1.25087315       0.44885576      -6.60850292  F        0        1
H        3.49790442       0.61258980      -5.72125807  F        0        1
H        3.17453904       2.22345457      -5.01770791  F        0        1
C       -2.64680970       2.42224866       0.10412769  T        1        2
C       -3.33565752       1.23230185       0.77438942  T        1        2
O       -2.23968057       0.33835875       1.04474455  T        1        2
C       -1.17888492       0.71239357       0.33082712  T        1        2
O       -1.37939090       1.87211239      -0.29820506  T        1        2
O       -0.15784734       0.07894485       0.26601519  T        1        2
H       -3.16351399       2.78185821      -0.78330174  T        1        2
H       -2.45887805       3.24935891       0.79017676  T        1        2
H       -3.81870812       1.47900977       1.71746803  T        1        2
H       -4.03816628       0.72065450       0.11509200  T        1        2
C        0.89520813      -4.32552559      -0.19856914  F        0        1
C        2.35543383      -4.65389577       0.11068031  F        0        1
O        2.97098954      -3.35240396       0.15212172  F        0        1
C        2.16055241      -2.46392252      -0.42420241  F        0        1
O        0.98033330      -2.99658151      -0.74596122  F        0        1
O        2.46360251      -1.31817498      -0.63195266  F        0        1
H        0.44630191      -4.97659900      -0.94560012  F        0        1
H        0.26868398      -4.28698614       0.69376412  F        0        1
H        2.50095146      -5.13360224       1.07626130  F        0        1
H        2.83898736      -5.23595526      -0.67518821  F        0        1
41
Properties=species:S:1:pos:R:3:is_solvent:L:1:group_label:I:1:tags:I:1 Coordinates=T from=T ORCA-job=T Li1EC4_r06_charge_1_spin_1_liquid_t_traj_3_frame_0000=T E=T -1378.044771814785=T solvent_indices_0based="_JSON [21, 22, 23, 24, 25, 26, 27, 28, 29, 30]" complex_indices_0based="_JSON [0, 1, 2, 3, 4, 5, 6, 7, 8, 9, 10, 11, 12, 13, 14, 15, 16, 17, 18, 19, 20, 31, 32, 33, 34, 35, 36, 37, 38, 39, 40]" complex_indices_1based="_JSON [1, 2, 3, 4, 5, 6, 7, 8, 9, 10, 11, 12, 13, 14, 15, 16, 17, 18, 19, 20, 21, 32, 33, 34, 35, 36, 37, 38, 39, 40, 41]" pbc="F F F"
Li       1.32355100       0.21744600      -0.95693100  F        0        1
C        4.71459000       1.48441600       1.86755500  F        0        1
C        5.25859100       2.67511600       1.07981300  F        0        1
O        4.48432400       2.63176200      -0.13290900  F        0        1
C        3.41193400       1.86193500       0.05763800  F        0        1
O        3.43537100       1.25659000       1.24676300  F        0        1
O        2.52764700       1.73551700      -0.74832300  F        0        1
H        5.31583300       0.58178700       1.74868700  F        0        1
H        4.55226900       1.69232300       2.92300000  F        0        1
H        5.07297100       3.63129700       1.57159400  F        0        1
H        6.31114000       2.58519000       0.81974400  F        0        1
C        1.40699700       1.28318600      -5.92313100  F        0        1
C        2.76104600       1.23352800      -5.21621600  F        0        1
O        2.43596900       0.62018500      -3.95515800  F        0        1
C        1.11773700       0.69637300      -3.75728600  F        0        1
O        0.47541200       1.15172700      -4.83287700  F        0        1
O        0.57039100       0.38697400      -2.73157600  F        0        1
H        1.21215200       2.22627900      -6.42933600  F        0        1
H        1.25087300       0.44885600      -6.60850300  F        0        1
H        3.49790400       0.61259000      -5.72125800  F        0        1
H        3.17453900       2.22345500      -5.01770800  F        0        1
C       -2.64681000       2.42224900       0.10412800  T        1        2
C       -3.33565800       1.23230200       0.77438900  T        1        2
O       -2.23968100       0.33835900       1.04474500  T        1        2
C       -1.17888500       0.71239400       0.33082700  T        1        2
O       -1.37939100       1.87211200      -0.29820500  T        1        2
O       -0.15784700       0.07894500       0.26601500  T        1        2
H       -3.16351400       2.78185800      -0.78330200  T        1        2
H       -2.45887800       3.24935900       0.79017700  T        1        2
H       -3.81870800       1.47901000       1.71746800  T        1        2
H       -4.03816600       0.72065400       0.11509200  T        1        2
C        0.89520800      -4.32552600      -0.19856900  F        0        1
C        2.35543400      -4.65389600       0.11068000  F        0        1
O        2.97099000      -3.35240400       0.15212200  F        0        1
C        2.16055200      -2.46392300      -0.42420200  F        0        1
O        0.98033300      -2.99658200      -0.74596100  F        0        1
O        2.46360300      -1.31817500      -0.63195300  F        0        1
H        0.44630200      -4.97659900      -0.94560000  F        0        1
H        0.26868400      -4.28698600       0.69376400  F        0        1
H        2.50095100      -5.13360200       1.07626100  F        0        1
H        2.83898700      -5.23595500      -0.67518800  F        0        1
41
Properties=species:S:1:pos:R:3:is_solvent:L:1:group_label:I:1:tags:I:1 Coordinates=T from=T ORCA-job=T Li1EC4_r06_charge_1_spin_1_liquid_t_traj_3_frame_0001=T E=T -1378.039767552321=T solvent_indices_0based="_JSON [21, 22, 23, 24, 25, 26, 27, 28, 29, 30]" complex_indices_0based="_JSON [0, 1, 2, 3, 4, 5, 6, 7, 8, 9, 10, 11, 12, 13, 14, 15, 16, 17, 18, 19, 20, 31, 32, 33, 34, 35, 36, 37, 38, 39, 40]" complex_indices_1based="_JSON [1, 2, 3, 4, 5, 6, 7, 8, 9, 10, 11, 12, 13, 14, 15, 16, 17, 18, 19, 20, 21, 32, 33, 34, 35, 36, 37, 38, 39, 40, 41]" pbc="F F F"
Li       1.71470382       0.24387006      -1.24388971  F        0        1
C        4.60648808       1.65794927       2.06877784  F        0        1
C        5.05931846       2.96619772       1.42099348  F        0        1
O        4.42987366       2.91350159       0.12572983  F        0        1
C        3.47421817       1.98747885       0.13940342  F        0        1
O        3.45716687       1.29652883       1.27904712  F        0        1
O        2.71021157       1.80156955      -0.77384042  F        0        1
H        5.34346720       0.85853679       1.98120327  F        0        1
H        4.29175134       1.76786460       3.10430792  F        0        1
H        4.69126015       3.85110755       1.94212408  F        0        1
H        6.13524456       3.03621395       1.27657180  F        0        1
C        0.95294208       1.37404347      -6.11074628  F        0        1
C        2.40157900       1.40437865      -5.62261515  F        0        1
O        2.30185801       0.83603217      -4.30245677  F        0        1
C        1.02676476       0.85171577      -3.91205964  F        0        1
O        0.20637098       1.23860669      -4.88518817  F        0        1
O        0.65864192       0.54904311      -2.80537902  F        0        1
H        0.63737766       2.29026538      -6.60506090  F        0        1
H        0.73163094       0.51125336      -6.74039399  F        0        1
H        3.07528464       0.78690138      -6.21273868  F        0        1
H        2.80017055       2.41532233      -5.52844613  F        0        1
C       -2.37325161       1.88759917       0.36351561  T        1        2
C       -3.17416927       0.61414179       0.63947098  T        1        2
O       -2.14723845      -0.37429773       0.83760951  T        1        2
C       -0.98378621       0.09542408       0.37618577  T        1        2
O       -1.07473400       1.37938677       0.01247687  T        1        2
O        0.02245146      -0.55536958       0.29973584  T        1        2
H       -2.75454975       2.46962347      -0.47305700  T        1        2
H       -2.26661726       2.52285344       1.24417112  T        1        2
H       -3.78178431       0.66666926       1.54056916  T        1        2
H       -3.78746686       0.30477666      -0.20812225  T        1        2
C        0.62403736      -3.95298299      -0.23453542  F        0        1
C        1.74383671      -4.16500702       0.78210146  F        0        1
O        2.51874433      -2.95719597       0.65123041  F        0        1
C        2.18250154      -2.34309599      -0.47992766  F        0        1
O        1.18757492      -2.96157512      -1.11317167  F        0        1
O        2.72242171      -1.34418516      -0.88781350  F        0        1
H        0.38782999      -4.83891338      -0.81986708  F        0        1
H       -0.27880766      -3.53224630       0.21029107  F        0        1
H        1.39446569      -4.23819532       1.80969723  F        0        1
H        2.38797175      -5.01184841       0.54045807  F        0        1
41
Properties=species:S:1:pos:R:3:is_solvent:L:1:group_label:I:1:tags:I:1 Coordinates=T from=T ORCA-job=T Li1EC4_r06_charge_1_spin_1_liquid_t_traj_3_frame_0001=T E=T -1378.039767552321=T solvent_indices_0based="_JSON [21, 22, 23, 24, 25, 26, 27, 28, 29, 30]" complex_indices_0based="_JSON [0, 1, 2, 3, 4, 5, 6, 7, 8, 9, 10, 11, 12, 13, 14, 15, 16, 17, 18, 19, 20, 31, 32, 33, 34, 35, 36, 37, 38, 39, 40]" complex_indices_1based="_JSON [1, 2, 3, 4, 5, 6, 7, 8, 9, 10, 11, 12, 13, 14, 15, 16, 17, 18, 19, 20, 21, 32, 33, 34, 35, 36, 37, 38, 39, 40, 41]" pbc="F F F"
Li       1.71470400       0.24387000      -1.24389000  F        0        1
C        4.60648800       1.65794900       2.06877800  F        0        1
C        5.05931800       2.96619800       1.42099300  F        0        1
O        4.42987400       2.91350200       0.12573000  F        0        1
C        3.47421800       1.98747900       0.13940300  F        0        1
O        3.45716700       1.29652900       1.27904700  F        0        1
O        2.71021200       1.80157000      -0.77384000  F        0        1
H        5.34346700       0.85853700       1.98120300  F        0        1
H        4.29175100       1.76786500       3.10430800  F        0        1
H        4.69126000       3.85110800       1.94212400  F        0        1
H        6.13524500       3.03621400       1.27657200  F        0        1
C        0.95294200       1.37404300      -6.11074600  F        0        1
C        2.40157900       1.40437900      -5.62261500  F        0        1
O        2.30185800       0.83603200      -4.30245700  F        0        1
C        1.02676500       0.85171600      -3.91206000  F        0        1
O        0.20637100       1.23860700      -4.88518800  F        0        1
O        0.65864200       0.54904300      -2.80537900  F        0        1
H        0.63737800       2.29026500      -6.60506100  F        0        1
H        0.73163100       0.51125300      -6.74039400  F        0        1
H        3.07528500       0.78690100      -6.21273900  F        0        1
H        2.80017100       2.41532200      -5.52844600  F        0        1
C       -2.37325200       1.88759900       0.36351600  T        1        2
C       -3.17416900       0.61414200       0.63947100  T        1        2
O       -2.14723800      -0.37429800       0.83761000  T        1        2
C       -0.98378600       0.09542400       0.37618600  T        1        2
O       -1.07473400       1.37938700       0.01247700  T        1        2
O        0.02245100      -0.55537000       0.29973600  T        1        2
H       -2.75455000       2.46962300      -0.47305700  T        1        2
H       -2.26661700       2.52285300       1.24417100  T        1        2
H       -3.78178400       0.66666900       1.54056900  T        1        2
H       -3.78746700       0.30477700      -0.20812200  T        1        2
C        0.62403700      -3.95298300      -0.23453500  F        0        1
C        1.74383700      -4.16500700       0.78210100  F        0        1
O        2.51874400      -2.95719600       0.65123000  F        0        1
C        2.18250200      -2.34309600      -0.47992800  F        0        1
O        1.18757500      -2.96157500      -1.11317200  F        0        1
O        2.72242200      -1.34418500      -0.88781300  F        0        1
H        0.38783000      -4.83891300      -0.81986700  F        0        1
H       -0.27880800      -3.53224600       0.21029100  F        0        1
H        1.39446600      -4.23819500       1.80969700  F        0        1
H        2.38797200      -5.01184800       0.54045800  F        0        1
41
Properties=species:S:1:pos:R:3:is_solvent:L:1:group_label:I:1:tags:I:1 Coordinates=T from=T ORCA-job=T Li1EC4_r06_charge_1_spin_1_liquid_t_traj_3_frame_0002=T E=T -1378.035148180299=T solvent_indices_0based="_JSON [21, 22, 23, 24, 25, 26, 27, 28, 29, 30]" complex_indices_0based="_JSON [0, 1, 2, 3, 4, 5, 6, 7, 8, 9, 10, 11, 12, 13, 14, 15, 16, 17, 18, 19, 20, 31, 32, 33, 34, 35, 36, 37, 38, 39, 40]" complex_indices_1based="_JSON [1, 2, 3, 4, 5, 6, 7, 8, 9, 10, 11, 12, 13, 14, 15, 16, 17, 18, 19, 20, 21, 32, 33, 34, 35, 36, 37, 38, 39, 40, 41]" pbc="F F F"
Li       2.00628747       0.29197429      -1.22996839  F        0        1
C        5.83063678       2.15357306       0.92188151  F        0        1
C        5.04703588       3.27979256       1.59974427  F        0        1
O        3.81023431       3.29812150       0.86226715  F        0        1
C        3.70146131       2.17860286       0.15286428  F        0        1
O        4.80799172       1.43831809       0.20228006  F        0        1
O        2.71376197       1.87612800      -0.46766466  F        0        1
H        6.56343751       2.51716597       0.20084653  F        0        1
H        6.30300920       1.46701391       1.62143260  F        0        1
H        4.81752350       3.07178476       2.64575803  F        0        1
H        5.51558320       4.25713169       1.50664180  F        0        1
C        1.36909535       0.96894746      -6.35313097  F        0        1
C        2.65245298       1.65145602      -5.87678451  F        0        1
O        2.74737045       1.22874221      -4.50235473  F        0        1
C        1.57733538       0.72035998      -4.11430431  F        0        1
O        0.70974280       0.62861624      -5.11805623  F        0        1
O        1.33166386       0.38017260      -2.98635314  F        0        1
H        0.71026984       1.62058752      -6.92281443  F        0        1
H        1.55329421       0.04758008      -6.90694048  F        0        1
H        3.54597563       1.31548652      -6.39897825  F        0        1
H        2.59019887       2.74041460      -5.89670859  F        0        1
C       -3.09317430       1.43128875       1.32376066  T        1        2
C       -3.65107030       0.00763821       1.33390332  T        1        2
O       -2.48680509      -0.79193105       1.06211017  T        1        2
C       -1.50936620      -0.00786359       0.57382238  T        1        2
O       -1.85224860       1.28540449       0.61429395  T        1        2
O       -0.46824913      -0.42503287       0.15704695  T        1        2
H       -3.71921221       2.14006996       0.78574813  T        1        2
H       -2.87544930       1.80714659       2.32459111  T        1        2
H       -4.06052540      -0.29301280       2.29589322  T        1        2
H       -4.38294667      -0.17114228       0.54452944  T        1        2
C       -0.05280269      -3.64784900      -0.39535689  F        0        1
C        0.58471949      -3.86963184       0.97627665  F        0        1
O        1.52035365      -2.77922945       1.07319264  F        0        1
C        1.67199660      -2.22385672      -0.12355828  F        0        1
O        0.89984013      -2.78797109      -1.04714610  F        0        1
O        2.44123070      -1.31984368      -0.34790394  F        0        1
H       -0.15455595      -4.55534800      -0.98669797  F        0        1
H       -0.99951624      -3.11174670      -0.33484921  F        0        1
H       -0.12130246      -3.78633857       1.79976486  F        0        1
H        1.14148273      -4.80495898       1.04737612  F        0        1
41
Properties=species:S:1:pos:R:3:is_solvent:L:1:group_label:I:1:tags:I:1 Coordinates=T from=T ORCA-job=T Li1EC4_r06_charge_1_spin_1_liquid_t_traj_3_frame_0002=T E=T -1378.035148180299=T solvent_indices_0based="_JSON [21, 22, 23, 24, 25, 26, 27, 28, 29, 30]" complex_indices_0based="_JSON [0, 1, 2, 3, 4, 5, 6, 7, 8, 9, 10, 11, 12, 13, 14, 15, 16, 17, 18, 19, 20, 31, 32, 33, 34, 35, 36, 37, 38, 39, 40]" complex_indices_1based="_JSON [1, 2, 3, 4, 5, 6, 7, 8, 9, 10, 11, 12, 13, 14, 15, 16, 17, 18, 19, 20, 21, 32, 33, 34, 35, 36, 37, 38, 39, 40, 41]" pbc="F F F"
Li       2.00628700       0.29197400      -1.22996800  F        0        1
C        5.83063700       2.15357300       0.92188200  F        0        1
C        5.04703600       3.27979300       1.59974400  F        0        1
O        3.81023400       3.29812100       0.86226700  F        0        1
C        3.70146100       2.17860300       0.15286400  F        0        1
O        4.80799200       1.43831800       0.20228000  F        0        1
O        2.71376200       1.87612800      -0.46766500  F        0        1
H        6.56343800       2.51716600       0.20084700  F        0        1
H        6.30300900       1.46701400       1.62143300  F        0        1
H        4.81752300       3.07178500       2.64575800  F        0        1
H        5.51558300       4.25713200       1.50664200  F        0        1
C        1.36909500       0.96894700      -6.35313100  F        0        1
C        2.65245300       1.65145600      -5.87678500  F        0        1
O        2.74737000       1.22874200      -4.50235500  F        0        1
C        1.57733500       0.72036000      -4.11430400  F        0        1
O        0.70974300       0.62861600      -5.11805600  F        0        1
O        1.33166400       0.38017300      -2.98635300  F        0        1
H        0.71027000       1.62058800      -6.92281400  F        0        1
H        1.55329400       0.04758000      -6.90694000  F        0        1
H        3.54597600       1.31548700      -6.39897800  F        0        1
H        2.59019900       2.74041500      -5.89670900  F        0        1
C       -3.09317400       1.43128900       1.32376100  T        1        2
C       -3.65107000       0.00763800       1.33390300  T        1        2
O       -2.48680500      -0.79193100       1.06211000  T        1        2
C       -1.50936600      -0.00786400       0.57382200  T        1        2
O       -1.85224900       1.28540400       0.61429400  T        1        2
O       -0.46824900      -0.42503300       0.15704700  T        1        2
H       -3.71921200       2.14007000       0.78574800  T        1        2
H       -2.87544900       1.80714700       2.32459100  T        1        2
H       -4.06052500      -0.29301300       2.29589300  T        1        2
H       -4.38294700      -0.17114200       0.54452900  T        1        2
C       -0.05280300      -3.64784900      -0.39535700  F        0        1
C        0.58471900      -3.86963200       0.97627700  F        0        1
O        1.52035400      -2.77922900       1.07319300  F        0        1
C        1.67199700      -2.22385700      -0.12355800  F        0        1
O        0.89984000      -2.78797100      -1.04714600  F        0        1
O        2.44123100      -1.31984400      -0.34790400  F        0        1
H       -0.15455600      -4.55534800      -0.98669800  F        0        1
H       -0.99951600      -3.11174700      -0.33484900  F        0        1
H       -0.12130200      -3.78633900       1.79976500  F        0        1
H        1.14148300      -4.80495900       1.04737600  F        0        1
41
Properties=species:S:1:pos:R:3:is_solvent:L:1:group_label:I:1:tags:I:1 Coordinates=T from=T ORCA-job=T Li1EC4_r06_charge_1_spin_1_liquid_t_traj_3_frame_0003=T E=T -1378.033176765318=T solvent_indices_0based="_JSON [21, 22, 23, 24, 25, 26, 27, 28, 29, 30]" complex_indices_0based="_JSON [0, 1, 2, 3, 4, 5, 6, 7, 8, 9, 10, 11, 12, 13, 14, 15, 16, 17, 18, 19, 20, 31, 32, 33, 34, 35, 36, 37, 38, 39, 40]" complex_indices_1based="_JSON [1, 2, 3, 4, 5, 6, 7, 8, 9, 10, 11, 12, 13, 14, 15, 16, 17, 18, 19, 20, 21, 32, 33, 34, 35, 36, 37, 38, 39, 40, 41]" pbc="F F F"
Li       2.50679495       0.23219150      -1.43005645  F        0        1
C        5.92723365       2.51503074       1.24042181  F        0        1
C        4.93759997       2.86282261       2.35126779  F        0        1
O        3.67207420       2.48121030       1.77378304  F        0        1
C        3.89123723       1.66920551       0.74346193  F        0        1
O        5.18609747       1.56901687       0.44467872  F        0        1
O        3.01970367       1.08707412       0.15119936  F        0        1
H        6.17187959       3.37027484       0.60839870  F        0        1
H        6.83716101       2.03314967       1.59141978  F        0        1
H        5.08706423       2.27642839       3.25866921  F        0        1
H        4.90033952       3.92366872       2.58837953  F        0        1
C        0.87420200       1.00033616      -5.76811632  F        0        1
C        2.17487722       1.55302769      -6.35283864  F        0        1
O        3.09981436       1.41975492      -5.25466101  F        0        1
C        2.42511387       1.19072235      -4.13418941  F        0        1
O        1.11913494       1.04146119      -4.34915540  F        0        1
O        2.93666508       1.13331102      -3.04331623  F        0        1
H       -0.00045880       1.61010241      -5.98350304  F        0        1
H        0.68885272      -0.03654011      -6.04848071  F        0        1
H        2.55888032       0.97615714      -7.19126861  F        0        1
H        2.11318595       2.60905961      -6.61892199  F        0        1
C       -3.53133860       1.23700075       0.84544961  T        1        2
C       -3.71531896      -0.19956832       1.33876023  T        1        2
O       -2.41884323      -0.77925447       1.12568773  T        1        2
C       -1.69434431       0.01455069       0.31126148  T        1        2
O       -2.34771338       1.15202965       0.03627195  T        1        2
O       -0.61257822      -0.27191598      -0.10620266  T        1        2
H       -4.35050573       1.59177957       0.22329780  T        1        2
H       -3.34572389       1.94368024       1.65646353  T        1        2
H       -3.95703395      -0.26659822       2.39871348  T        1        2
H       -4.44507175      -0.76036094       0.75237666  T        1        2
C       -0.37371344      -3.54884344      -0.11054379  F        0        1
C        0.58881385      -3.16468823       1.02011073  F        0        1
O        1.52107052      -2.27770055       0.37819146  F        0        1
C        1.24645130      -2.19976125      -0.91790465  F        0        1
O        0.25297751      -2.99816782      -1.28180490  F        0        1
O        1.85769290      -1.49908905      -1.69079549  F        0        1
H       -0.47814374      -4.62338739      -0.25121950  F        0        1
H       -1.35107221      -3.08196822      -0.00153641  F        0        1
H        0.09728156      -2.62202263       1.82512960  F        0        1
H        1.14742802      -4.01160013       1.41766822  F        0        1
41
Properties=species:S:1:pos:R:3:is_solvent:L:1:group_label:I:1:tags:I:1 Coordinates=T from=T ORCA-job=T Li1EC4_r06_charge_1_spin_1_liquid_t_traj_3_frame_0003=T E=T -1378.033176765318=T solvent_indices_0based="_JSON [21, 22, 23, 24, 25, 26, 27, 28, 29, 30]" complex_indices_0based="_JSON [0, 1, 2, 3, 4, 5, 6, 7, 8, 9, 10, 11, 12, 13, 14, 15, 16, 17, 18, 19, 20, 31, 32, 33, 34, 35, 36, 37, 38, 39, 40]" complex_indices_1based="_JSON [1, 2, 3, 4, 5, 6, 7, 8, 9, 10, 11, 12, 13, 14, 15, 16, 17, 18, 19, 20, 21, 32, 33, 34, 35, 36, 37, 38, 39, 40, 41]" pbc="F F F"
Li       2.50679500       0.23219100      -1.43005600  F        0        1
C        5.92723400       2.51503100       1.24042200  F        0        1
C        4.93760000       2.86282300       2.35126800  F        0        1
O        3.67207400       2.48121000       1.77378300  F        0        1
C        3.89123700       1.66920600       0.74346200  F        0        1
O        5.18609700       1.56901700       0.44467900  F        0        1
O        3.01970400       1.08707400       0.15119900  F        0        1
H        6.17188000       3.37027500       0.60839900  F        0        1
H        6.83716100       2.03315000       1.59142000  F        0        1
H        5.08706400       2.27642800       3.25866900  F        0        1
H        4.90034000       3.92366900       2.58838000  F        0        1
C        0.87420200       1.00033600      -5.76811600  F        0        1
C        2.17487700       1.55302800      -6.35283900  F        0        1
O        3.09981400       1.41975500      -5.25466100  F        0        1
C        2.42511400       1.19072200      -4.13418900  F        0        1
O        1.11913500       1.04146100      -4.34915500  F        0        1
O        2.93666500       1.13331100      -3.04331600  F        0        1
H       -0.00045900       1.61010200      -5.98350300  F        0        1
H        0.68885300      -0.03654000      -6.04848100  F        0        1
H        2.55888000       0.97615700      -7.19126900  F        0        1
H        2.11318600       2.60906000      -6.61892200  F        0        1
C       -3.53133900       1.23700100       0.84545000  T        1        2
C       -3.71531900      -0.19956800       1.33876000  T        1        2
O       -2.41884300      -0.77925400       1.12568800  T        1        2
C       -1.69434400       0.01455100       0.31126100  T        1        2
O       -2.34771300       1.15203000       0.03627200  T        1        2
O       -0.61257800      -0.27191600      -0.10620300  T        1        2
H       -4.35050600       1.59178000       0.22329800  T        1        2
H       -3.34572400       1.94368000       1.65646400  T        1        2
H       -3.95703400      -0.26659800       2.39871300  T        1        2
H       -4.44507200      -0.76036100       0.75237700  T        1        2
C       -0.37371300      -3.54884300      -0.11054400  F        0        1
C        0.58881400      -3.16468800       1.02011100  F        0        1
O        1.52107100      -2.27770100       0.37819100  F        0        1
C        1.24645100      -2.19976100      -0.91790500  F        0        1
O        0.25297800      -2.99816800      -1.28180500  F        0        1
O        1.85769300      -1.49908900      -1.69079500  F        0        1
H       -0.47814400      -4.62338700      -0.25122000  F        0        1
H       -1.35107200      -3.08196800      -0.00153600  F        0        1
H        0.09728200      -2.62202300       1.82513000  F        0        1
H        1.14742800      -4.01160000       1.41766800  F        0        1
41
Properties=species:S:1:pos:R:3:is_solvent:L:1:group_label:I:1:tags:I:1 Coordinates=T from=T ORCA-job=T Li1EC4_r06_charge_1_spin_1_liquid_t_traj_3_frame_0004=T E=T -1378.032850704971=T solvent_indices_0based="_JSON [21, 22, 23, 24, 25, 26, 27, 28, 29, 30]" complex_indices_0based="_JSON [0, 1, 2, 3, 4, 5, 6, 7, 8, 9, 10, 11, 12, 13, 14, 15, 16, 17, 18, 19, 20, 31, 32, 33, 34, 35, 36, 37, 38, 39, 40]" complex_indices_1based="_JSON [1, 2, 3, 4, 5, 6, 7, 8, 9, 10, 11, 12, 13, 14, 15, 16, 17, 18, 19, 20, 21, 32, 33, 34, 35, 36, 37, 38, 39, 40, 41]" pbc="F F F"
Li       2.48481526       0.45280642      -1.31963747  F        0        1
C        6.48811402       2.04028137       1.16270348  F        0        1
C        5.62209566       2.57447339       2.30812977  F        0        1
O        4.28901356       2.47664335       1.76999378  F        0        1