41
Properties=species:S:1:pos:R:3:is_solvent:L:1:group_label:I:1:tags:I:1 Coordinates=T from=T ORCA-job=T Li1EC4_r07_charge_1_spin_1_liquid_t_traj_3_frame_0000=T E=T -1378.044428975604=T solvent_indices_0based="_JSON [21, 22, 23, 24, 25, 26, 27, 28, 29, 30]" complex_indices_0based="_JSON [0, 1, 2, 3, 4, 5, 6, 7, 8, 9, 10, 11, 12, 13, 14, 15, 16, 17, 18, 19, 20, 31, 32, 33, 34, 35, 36, 37, 38, 39, 40]" complex_indices_1based="_JSON [1, 2, 3, 4, 5, 6, 7, 8, 9, 10, 11, 12, 13, 14, 15, 16, 17, 18, 19, 20, 21, 32, 33, 34, 35, 36, 37, 38, 39, 40, 41]" pbc="F F F"
Li       0.03629815       0.11906873       0.15895412  F        0        1
C        4.20621969       0.95318513       2.16998046  F        0        1
C        3.99174205       2.45480436       2.36135077  F        0        1
O        2.90718137       2.74035962       1.45865364  F        0        1
C        2.31319647       1.59924738       1.10853779  F        0        1
O        2.97295362       0.53070907       1.55941830  F        0        1
O        1.30322825       1.54378911       0.45734410  F        0        1
H        5.02343505       0.72184475       1.48525483  F        0        1
H        4.33322694       0.40734018       3.10255082  F        0        1
H        3.67232386       2.71401574       3.37169672  F        0        1
H        4.84841577       3.05993872       2.07218665  F        0        1
C        1.00081183      -0.76813144      -4.33761772  F        0        1
C        0.57240319      -2.23537545      -4.29906551  F        0        1
O        0.60227173      -2.54075932      -2.89256265  F        0        1
C        0.63622850      -1.40483687      -2.19500946  F        0        1
O        0.78466555      -0.33719992      -2.98125278  F        0        1
O        0.54941447      -1.35382814      -0.99609645  F        0        1
H        2.05782712      -0.63683999      -4.57346663  F        0        1
H        0.39099976      -0.15248955      -4.99556516  F        0        1
H       -0.44484479      -2.39115563      -4.66091404  F        0        1
H        1.25919109      -2.90592661      -4.81133610  F        0        1
C       -2.85795855       3.77826788       0.59320297  T        1        2
C       -3.20647312       3.89888864      -0.89107404  T        1        2
O       -2.82055299       2.61583218      -1.41587860  T        1        2
C       -2.03233659       1.99680111      -0.53588619  T        1        2
O       -1.95043806       2.66177565       0.61828149  T        1        2
O       -1.46854900       0.95806150      -0.75912045  T        1        2
H       -2.34302484       4.64863523       0.99457984  T        1        2
H       -3.72016766       3.53308738       1.21509325  T        1        2
H       -4.26808001       4.04320324      -1.08075280  T        1        2
H       -2.62609604       4.66727492      -1.40375741  T        1        2
C       -1.40039584      -3.58951976       3.31945893  F        0        1
C       -1.91279278      -3.69447846       1.88317244  F        0        1
O       -1.63927127      -2.38475553       1.35378371  F        0        1
C       -0.75641524      -1.76774684       2.14194498  F        0        1
O       -0.51449788      -2.45591009       3.25765403  F        0        1
O       -0.24130558      -0.71180928       1.88234293  F        0        1
H       -2.18866478      -3.36854373       4.04061147  F        0        1
H       -0.82772310      -4.45555097       3.64451817  F        0        1
H       -1.36349732      -4.42568478       1.28819528  F        0        1
H       -2.98255461      -3.87894891       1.81097723  F        0        1
41
Properties=species:S:1:pos:R:3:is_solvent:L:1:group_label:I:1:tags:I:1 Coordinates=T from=T ORCA-job=T Li1EC4_r07_charge_1_spin_1_liquid_t_traj_3_frame_0000=T E=T -1378.044428975604=T solvent_indices_0based="_JSON [21, 22, 23, 24, 25, 26, 27, 28, 29, 30]" complex_indices_0based="_JSON [0, 1, 2, 3, 4, 5, 6, 7, 8, 9, 10, 11, 12, 13, 14, 15, 16, 17, 18, 19, 20, 31, 32, 33, 34, 35, 36, 37, 38, 39, 40]" complex_indices_1based="_JSON [1, 2, 3, 4, 5, 6, 7, 8, 9, 10, 11, 12, 13, 14, 15, 16, 17, 18, 19, 20, 21, 32, 33, 34, 35, 36, 37, 38, 39, 40, 41]" pbc="F F F"
Li       0.03629800       0.11906900       0.15895400  F        0        1
C        4.20622000       0.95318500       2.16998000  F        0        1
C        3.99174200       2.45480400       2.36135100  F        0        1
O        2.90718100       2.74036000       1.45865400  F        0        1
C        2.31319600       1.59924700       1.10853800  F        0        1
O        2.97295400       0.53070900       1.55941800  F        0        1
O        1.30322800       1.54378900       0.45734400  F        0        1
H        5.02343500       0.72184500       1.48525500  F        0        1
H        4.33322700       0.40734000       3.10255100  F        0        1
H        3.67232400       2.71401600       3.37169700  F        0        1
H        4.84841600       3.05993900       2.07218700  F        0        1
C        1.00081200      -0.76813100      -4.33761800  F        0        1
C        0.57240300      -2.23537500      -4.29906600  F        0        1
O        0.60227200      -2.54075900      -2.89256300  F        0        1
C        0.63622900      -1.40483700      -2.19500900  F        0        1
O        0.78466600      -0.33720000      -2.98125300  F        0        1
O        0.54941400      -1.35382800      -0.99609600  F        0        1
H        2.05782700      -0.63684000      -4.57346700  F        0        1
H        0.39100000      -0.15249000      -4.99556500  F        0        1
H       -0.44484500      -2.39115600      -4.66091400  F        0        1
H        1.25919100      -2.90592700      -4.81133600  F        0        1
C       -2.85795900       3.77826800       0.59320300  T        1        2
C       -3.20647300       3.89888900      -0.89107400  T        1        2
O       -2.82055300       2.61583200      -1.41587900  T        1        2
C       -2.03233700       1.99680100      -0.53588600  T        1        2
O       -1.95043800       2.66177600       0.61828100  T        1        2
O       -1.46854900       0.95806200      -0.75912000  T        1        2
H       -2.34302500       4.64863500       0.99458000  T        1        2
H       -3.72016800       3.53308700       1.21509300  T        1        2
H       -4.26808000       4.04320300      -1.08075300  T        1        2
H       -2.62609600       4.66727500      -1.40375700  T        1        2
C       -1.40039600      -3.58952000       3.31945900  F        0        1
C       -1.91279300      -3.69447800       1.88317200  F        0        1
O       -1.63927100      -2.38475600       1.35378400  F        0        1
C       -0.75641500      -1.76774700       2.14194500  F        0        1
O       -0.51449800      -2.45591000       3.25765400  F        0        1
O       -0.24130600      -0.71180900       1.88234300  F        0        1
H       -2.18866500      -3.36854400       4.04061100  F        0        1
H       -0.82772300      -4.45555100       3.64451800  F        0        1
H       -1.36349700      -4.42568500       1.28819500  F        0        1
H       -2.98255500      -3.87894900       1.81097700  F        0        1
41
Properties=species:S:1:pos:R:3:is_solvent:L:1:group_label:I:1:tags:I:1 Coordinates=T from=T ORCA-job=T Li1EC4_r07_charge_1_spin_1_liquid_t_traj_3_frame_0001=T E=T -1378.039072765601=T solvent_indices_0based="_JSON [21, 22, 23, 24, 25, 26, 27, 28, 29, 30]" complex_indices_0based="_JSON [0, 1, 2, 3, 4, 5, 6, 7, 8, 9, 10, 11, 12, 13, 14, 15, 16, 17, 18, 19, 20, 31, 32, 33, 34, 35, 36, 37, 38, 39, 40]" complex_indices_1based="_JSON [1, 2, 3, 4, 5, 6, 7, 8, 9, 10, 11, 12, 13, 14, 15, 16, 17, 18, 19, 20, 21, 32, 33, 34, 35, 36, 37, 38, 39, 40, 41]" pbc="F F F"
Li       0.40619315      -0.09812729       0.53027789  F        0        1
C        4.45952296       1.39777473       2.30401654  F        0        1
C        4.16065181       2.89690483       2.23565546  F        0        1
O        2.99092722       2.95374856       1.39606224  F        0        1
C        2.46256537       1.73742365       1.29232290  F        0        1
O        3.22062940       0.80539139       1.86815452  F        0        1
O        1.41718601       1.50780903       0.73854027  F        0        1
H        5.24610728       1.08613879       1.61580238  F        0        1
H        4.67653876       1.03992090       3.30819682  F        0        1
H        3.90464919       3.32703381       3.20467915  F        0        1
H        4.95000496       3.47874962       1.76450494  F        0        1
C        0.60005089      -0.77573550      -4.05354293  F        0        1
C       -0.64387927      -1.61706289      -3.76465120  F        0        1
O       -0.38467050      -2.12502147      -2.44309075  F        0        1
C        0.57155659      -1.39374382      -1.87764538  F        0        1
O        1.16056171      -0.57392863      -2.74346559  F        0        1
O        0.87883864      -1.47478129      -0.71317091  F        0        1
H        1.33883669      -1.29658569      -4.66419608  F        0        1
H        0.37546058       0.19793160      -4.48407808  F        0        1
H       -1.55598698      -1.02109877      -3.72221703  F        0        1
H       -0.76876521      -2.46061694      -4.44031511  F        0        1
C       -2.75409043       3.52071684      -0.06969286  T        1        2
C       -2.80736399       3.66343244      -1.59143444  T        1        2
O       -2.35981373       2.37471732      -2.04927882  T        1        2
C       -1.76102158       1.72999853      -1.04115101  T        1        2
O       -1.88552658       2.38874327       0.11410575  T        1        2
O       -1.18578438       0.68307379      -1.16351406  T        1        2
H       -2.31414154       4.37899271       0.43390083  T        1        2
H       -3.72377116       3.28380389       0.37071015  T        1        2
H       -3.80830833       3.84031715      -1.97960694  T        1        2
H       -2.11902892       4.42014183      -1.97095199  T        1        2
C       -1.84854119      -3.70587115       3.25301440  F        0        1
C       -2.22932749      -3.67716989       1.77203037  F        0        1
O       -1.77071053      -2.37824449       1.35255716  F        0        1
C       -0.91703617      -1.90145707       2.25820347  F        0        1
O       -0.85961550      -2.66268520       3.34716549  F        0        1
O       -0.27431391      -0.89222008       2.11308955  F        0        1
H       -2.67777885      -3.44998550       3.91388881  F        0        1
H       -1.39191352      -4.64114159       3.56964661  F        0        1
H       -1.70567016      -4.42990183       1.18120016  F        0        1
H       -3.30085491      -3.73861741       1.59430296  F        0        1
41
Properties=species:S:1:pos:R:3:is_solvent:L:1:group_label:I:1:tags:I:1 Coordinates=T from=T ORCA-job=T Li1EC4_r07_charge_1_spin_1_liquid_t_traj_3_frame_0001=T E=T -1378.039072765601=T solvent_indices_0based="_JSON [21, 22, 23, 24, 25, 26, 27, 28, 29, 30]" complex_indices_0based="_JSON [0, 1, 2, 3, 4, 5, 6, 7, 8, 9, 10, 11, 12, 13, 14, 15, 16, 17, 18, 19, 20, 31, 32, 33, 34, 35, 36, 37, 38, 39, 40]" complex_indices_1based="_JSON [1, 2, 3, 4, 5, 6, 7, 8, 9, 10, 11, 12, 13, 14, 15, 16, 17, 18, 19, 20, 21, 32, 33, 34, 35, 36, 37, 38, 39, 40, 41]" pbc="F F F"
Li       0.40619300      -0.09812700       0.53027800  F        0        1
C        4.45952300       1.39777500       2.30401700  F        0        1
C        4.16065200       2.89690500       2.23565500  F        0        1
O        2.99092700       2.95374900       1.39606200  F        0        1
C        2.46256500       1.73742400       1.29232300  F        0        1
O        3.22062900       0.80539100       1.86815500  F        0        1
O        1.41718600       1.50780900       0.73854000  F        0        1
H        5.24610700       1.08613900       1.61580200  F        0        1
H        4.67653900       1.03992100       3.30819700  F        0        1
H        3.90464900       3.32703400       3.20467900  F        0        1
H        4.95000500       3.47875000       1.76450500  F        0        1
C        0.60005100      -0.77573600      -4.05354300  F        0        1
C       -0.64387900      -1.61706300      -3.76465100  F        0        1
O       -0.38467100      -2.12502100      -2.44309100  F        0        1
C        0.57155700      -1.39374400      -1.87764500  F        0        1
O        1.16056200      -0.57392900      -2.74346600  F        0        1
O        0.87883900      -1.47478100      -0.71317100  F        0        1
H        1.33883700      -1.29658600      -4.66419600  F        0        1
H        0.37546100       0.19793200      -4.48407800  F        0        1
H       -1.55598700      -1.02109900      -3.72221700  F        0        1
H       -0.76876500      -2.46061700      -4.44031500  F        0        1
C       -2.75409000       3.52071700      -0.06969300  T        1        2
C       -2.80736400       3.66343200      -1.59143400  T        1        2
O       -2.35981400       2.37471700      -2.04927900  T        1        2
C       -1.76102200       1.72999900      -1.04115100  T        1        2
O       -1.88552700       2.38874300       0.11410600  T        1        2
O       -1.18578400       0.68307400      -1.16351400  T        1        2
H       -2.31414200       4.37899300       0.43390100  T        1        2
H       -3.72377100       3.28380400       0.37071000  T        1        2
H       -3.80830800       3.84031700      -1.97960700  T        1        2
H       -2.11902900       4.42014200      -1.97095200  T        1        2
C       -1.84854100      -3.70587100       3.25301400  F        0        1
C       -2.22932700      -3.67717000       1.77203000  F        0        1
O       -1.77071100      -2.37824400       1.35255700  F        0        1
C       -0.91703600      -1.90145700       2.25820300  F        0        1
O       -0.85961600      -2.66268500       3.34716500  F        0        1
O       -0.27431400      -0.89222000       2.11309000  F        0        1
H       -2.67777900      -3.44998600       3.91388900  F        0        1
H       -1.39191400      -4.64114200       3.56964700  F        0        1
H       -1.70567000      -4.42990200       1.18120000  F        0        1
H       -3.30085500      -3.73861700       1.59430300  F        0        1
41
Properties=species:S:1:pos:R:3:is_solvent:L:1:group_label:I:1:tags:I:1 Coordinates=T from=T ORCA-job=T Li1EC4_r07_charge_1_spin_1_liquid_t_traj_3_frame_0002=T E=T -1378.041920933854=T solvent_indices_0based="_JSON [21, 22, 23, 24, 25, 26, 27, 28, 29, 30]" complex_indices_0based="_JSON [0, 1, 2, 3, 4, 5, 6, 7, 8, 9, 10, 11, 12, 13, 14, 15, 16, 17, 18, 19, 20, 31, 32, 33, 34, 35, 36, 37, 38, 39, 40]" complex_indices_1based="_JSON [1, 2, 3, 4, 5, 6, 7, 8, 9, 10, 11, 12, 13, 14, 15, 16, 17, 18, 19, 20, 21, 32, 33, 34, 35, 36, 37, 38, 39, 40, 41]" pbc="F F F"
Li       0.00029779       0.73909605       0.30121367  F        0        1
C        4.11527219       1.27005180       2.43389759  F        0        1
C        4.03596915       2.77966237       2.66979984  F        0        1
O        2.93540488       3.17798866       1.82856474  F        0        1
C        2.24571856       2.10055993       1.46589076  F        0        1
O        2.82960829       0.96935967       1.85633245  F        0        1
O        1.20948672       2.14630209       0.85084855  F        0        1
H        4.88525332       0.98836616       1.71466100  F        0        1
H        4.22493933       0.69046611       3.34799546  F        0        1
H        3.78728867       3.03857695       3.69966337  F        0        1
H        4.92439556       3.32055052       2.35113435  F        0        1
C       -0.83892988      -0.90053526      -4.04208211  F        0        1
C       -0.69306259      -2.34084200      -3.55266893  F        0        1
O       -0.24079534      -2.17096406      -2.19502889  F        0        1
C        0.15808330      -0.91468336      -2.01696258  F        0        1
O       -0.02969436      -0.16684118      -3.10334608  F        0        1
O        0.65276026      -0.50594627      -0.99656797  F        0        1
H       -0.44371826      -0.73328326      -5.04160607  F        0        1
H       -1.86254787      -0.53323651      -3.96301419  F        0        1
H       -1.63218098      -2.88957010      -3.53444888  F        0        1
H        0.06594980      -2.90520983      -4.09625335  F        0        1
C       -1.63714655       3.41286283      -0.29874693  T        1        2
C       -2.61815870       3.66192543      -1.44368637  T        1        2
O       -3.12381906       2.34520530      -1.73722812  T        1        2
C       -2.31359076       1.42514523      -1.21520277  T        1        2
O       -1.36160083       2.00640925      -0.44372313  T        1        2
O       -2.37657843       0.24596976      -1.37900908  T        1        2
H       -0.69946489       3.95605269      -0.38743728  T        1        2
H       -2.07546593       3.57173650       0.68727228  T        1        2
H       -3.45633735       4.29767706      -1.16829931  T        1        2
H       -2.13214350       4.04809502      -2.34082466  T        1        2
C       -1.60563168      -3.31823781       2.89188295  F        0        1
C       -1.78478611      -3.40510095       1.37482761  F        0        1
O       -1.58694398      -2.04378443       0.95331953  F        0        1
C       -1.01653176      -1.35450769       1.93840699  F        0        1
O       -0.92676518      -2.06022281       3.06320202  F        0        1
O       -0.62638692      -0.21824025       1.83294864  F        0        1
H       -2.55131863      -3.27095255       3.43301150  F        0        1
H       -0.97850276      -4.10632997       3.30343187  F        0        1
H       -1.02909305      -4.02426331       0.88932000  F        0        1
H       -2.78089399      -3.71841068       1.06817376  F        0        1
41
Properties=species:S:1:pos:R:3:is_solvent:L:1:group_label:I:1:tags:I:1 Coordinates=T from=T ORCA-job=T Li1EC4_r07_charge_1_spin_1_liquid_t_traj_3_frame_0002=T E=T -1378.041920933854=T solvent_indices_0based="_JSON [21, 22, 23, 24, 25, 26, 27, 28, 29, 30]" complex_indices_0based="_JSON [0, 1, 2, 3, 4, 5, 6, 7, 8, 9, 10, 11, 12, 13, 14, 15, 16, 17, 18, 19, 20, 31, 32, 33, 34, 35, 36, 37, 38, 39, 40]" complex_indices_1based="_JSON [1, 2, 3, 4, 5, 6, 7, 8, 9, 10, 11, 12, 13, 14, 15, 16, 17, 18, 19, 20, 21, 32, 33, 34, 35, 36, 37, 38, 39, 40, 41]" pbc="F F F"
Li       0.00029800       0.73909600       0.30121400  F        0        1
C        4.11527200       1.27005200       2.43389800  F        0        1
C        4.03596900       2.77966200       2.66980000  F        0        1
O        2.93540500       3.17798900       1.82856500  F        0        1
C        2.24571900       2.10056000       1.46589100  F        0        1
O        2.82960800       0.96936000       1.85633200  F        0        1
O        1.20948700       2.14630200       0.85084900  F        0        1
H        4.88525300       0.98836600       1.71466100  F        0        1
H        4.22493900       0.69046600       3.34799500  F        0        1
H        3.78728900       3.03857700       3.69966300  F        0        1
H        4.92439600       3.32055100       2.35113400  F        0        1
C       -0.83893000      -0.90053500      -4.04208200  F        0        1
C       -0.69306300      -2.34084200      -3.55266900  F        0        1
O       -0.24079500      -2.17096400      -2.19502900  F        0        1
C        0.15808300      -0.91468300      -2.01696300  F        0        1
O       -0.02969400      -0.16684100      -3.10334600  F        0        1
O        0.65276000      -0.50594600      -0.99656800  F        0        1
H       -0.44371800      -0.73328300      -5.04160600  F        0        1
H       -1.86254800      -0.53323700      -3.96301400  F        0        1
H       -1.63218100      -2.88957000      -3.53444900  F        0        1
H        0.06595000      -2.90521000      -4.09625300  F        0        1
C       -1.63714700       3.41286300      -0.29874700  T        1        2
C       -2.61815900       3.66192500      -1.44368600  T        1        2
O       -3.12381900       2.34520500      -1.73722800  T        1        2
C       -2.31359100       1.42514500      -1.21520300  T        1        2
O       -1.36160100       2.00640900      -0.44372300  T        1        2
O       -2.37657800       0.24597000      -1.37900900  T        1        2
H       -0.69946500       3.95605300      -0.38743700  T        1        2
H       -2.07546600       3.57173600       0.68727200  T        1        2
H       -3.45633700       4.29767700      -1.16829900  T        1        2
H       -2.13214300       4.04809500      -2.34082500  T        1        2
C       -1.60563200      -3.31823800       2.89188300  F        0        1
C       -1.78478600      -3.40510100       1.37482800  F        0        1
O       -1.58694400      -2.04378400       0.95332000  F        0        1
C       -1.01653200      -1.35450800       1.93840700  F        0        1
O       -0.92676500      -2.06022300       3.06320200  F        0        1
O       -0.62638700      -0.21824000       1.83294900  F        0        1
H       -2.55131900      -3.27095300       3.43301100  F        0        1
H       -0.97850300      -4.10633000       3.30343200  F        0        1
H       -1.02909300      -4.02426300       0.88932000  F        0        1
H       -2.78089400      -3.71841100       1.06817400  F        0        1
41
Properties=species:S:1:pos:R:3:is_solvent:L:1:group_label:I:1:tags:I:1 Coordinates=T from=T ORCA-job=T Li1EC4_r07_charge_1_spin_1_liquid_t_traj_3_frame_0003=T E=T -1378.036967370310=T solvent_indices_0based="_JSON [21, 22, 23, 24, 25, 26, 27, 28, 29, 30]" complex_indices_0based="_JSON [0, 1, 2, 3, 4, 5, 6, 7, 8, 9, 10, 11, 12, 13, 14, 15, 16, 17, 18, 19, 20, 31, 32, 33, 34, 35, 36, 37, 38, 39, 40]" complex_indices_1based="_JSON [1, 2, 3, 4, 5, 6, 7, 8, 9, 10, 11, 12, 13, 14, 15, 16, 17, 18, 19, 20, 21, 32, 33, 34, 35, 36, 37, 38, 39, 40, 41]" pbc="F F F"
Li       1.43763940       0.39857649       0.39448053  F        0        1
C        5.97023703      -0.10806469       2.24609344  F        0        1
C        6.37908111       1.29859108       1.80903417  F        0        1
O        5.29480412       1.68973158       0.94293305  F        0        1
C        4.26020204       0.88027017       1.14259609  F        0        1
O        4.55735507      -0.13046964       1.95875028  F        0        1
O        3.17777974       1.04328096       0.64023031  F        0        1
H        6.44806408      -0.89449660       1.66052452  F        0        1
H        6.10758622      -0.29390654       3.30905277  F        0        1
H        6.42385514       2.00742466       2.63682121  F        0        1
H        7.30302461       1.33006612       1.23591165  F        0        1
C       -0.40867579       1.60265929      -3.47805945  F        0        1
C       -0.67357292       0.22305996      -4.08460066  F        0        1
O       -0.22853588      -0.67711489      -3.05225098  F        0        1
C        0.46139814       0.00094091      -2.14327187  F        0        1
O        0.49770872       1.30696784      -2.40109933  F        0        1
O        1.01462127      -0.50623049      -1.19869802  F        0        1
H        0.08437837       2.29205808      -4.16038226  F        0        1
H       -1.30337780       2.05662305      -3.05306554  F        0        1
H       -1.72799222       0.03141421      -4.27134035  F        0        1
H       -0.08715768       0.02733027      -4.98301558  F        0        1
C       -5.23206632      -0.11549511      -0.70889985  T        1        2
C       -4.99749257       0.69697356      -1.97854039  T        1        2
O       -3.56236962       0.71216043      -2.07946498  T        1        2
C       -3.02278657       0.40869279      -0.88487166  T        1        2
O       -3.97543234       0.01237490      -0.01777367  T        1        2
O       -1.85945069       0.47069601      -0.62636347  T        1        2
H       -6.02081912       0.28293018      -0.07403387  T        1        2
H       -5.41015660      -1.17346431      -0.91155412  T        1        2
H       -5.40356970       0.23548171      -2.87615994  T        1        2
H       -5.34806427       1.72691795      -1.89300570  T        1        2
C       -2.83636506      -0.23479983       3.13292107  F        0        1
C       -2.36375387      -1.55227847       2.51632425  F        0        1
O       -1.01928381      -1.25100656       2.10711627  F        0        1
C       -0.83426443       0.06689300       2.12765915  F        0        1
O       -1.87263262       0.71626186       2.64356301  F        0        1
O        0.17341538       0.60847007       1.74856200  F        0        1
H       -3.82116810       0.07377089       2.79021248  F        0        1
H       -2.79346453      -0.23086650       4.22281540  F        0        1
H       -2.33400394      -2.38057056       3.22130453  F        0        1
H       -2.93038350      -1.82882793       1.62884447  F        0        1
41
Properties=species:S:1:pos:R:3:is_solvent:L:1:group_label:I:1:tags:I:1 Coordinates=T from=T ORCA-job=T Li1EC4_r07_charge_1_spin_1_liquid_t_traj_3_frame_0003=T E=T -1378.036967370310=T solvent_indices_0based="_JSON [21, 22, 23, 24, 25, 26, 27, 28, 29, 30]" complex_indices_0based="_JSON [0, 1, 2, 3, 4, 5, 6, 7, 8, 9, 10, 11, 12, 13, 14, 15, 16, 17, 18, 19, 20, 31, 32, 33, 34, 35, 36, 37, 38, 39, 40]" complex_indices_1based="_JSON [1, 2, 3, 4, 5, 6, 7, 8, 9, 10, 11, 12, 13, 14, 15, 16, 17, 18, 19, 20, 21, 32, 33, 34, 35, 36, 37, 38, 39, 40, 41]" pbc="F F F"
Li       1.43763900       0.39857600       0.39448100  F        0        1
C        5.97023700      -0.10806500       2.24609300  F        0        1
C        6.37908100       1.29859100       1.80903400  F        0        1
O        5.29480400       1.68973200       0.94293300  F        0        1
C        4.26020200       0.88027000       1.14259600  F        0        1
O        4.55735500      -0.13047000       1.95875000  F        0        1
O        3.17778000       1.04328100       0.64023000  F        0        1
H        6.44806400      -0.89449700       1.66052500  F        0        1
H        6.10758600      -0.29390700       3.30905300  F        0        1
H        6.42385500       2.00742500       2.63682100  F        0        1
H        7.30302500       1.33006600       1.23591200  F        0        1
C       -0.40867600       1.60265900      -3.47805900  F        0        1
C       -0.67357300       0.22306000      -4.08460100  F        0        1
O       -0.22853600      -0.67711500      -3.05225100  F        0        1
C        0.46139800       0.00094100      -2.14327200  F        0        1
O        0.49770900       1.30696800      -2.40109900  F        0        1
O        1.01462100      -0.50623000      -1.19869800  F        0        1
H        0.08437800       2.29205800      -4.16038200  F        0        1
H       -1.30337800       2.05662300      -3.05306600  F        0        1
H       -1.72799200       0.03141400      -4.27134000  F        0        1
H       -0.08715800       0.02733000      -4.98301600  F        0        1
C       -5.23206600      -0.11549500      -0.70890000  T        1        2
C       -4.99749300       0.69697400      -1.97854000  T        1        2
O       -3.56237000       0.71216000      -2.07946500  T        1        2
C       -3.02278700       0.40869300      -0.88487200  T        1        2
O       -3.97543200       0.01237500      -0.01777400  T        1        2
O       -1.85945100       0.47069600      -0.62636300  T        1        2
H       -6.02081900       0.28293000      -0.07403400  T        1        2
H       -5.41015700      -1.17346400      -0.91155400  T        1        2
H       -5.40357000       0.23548200      -2.87616000  T        1        2
H       -5.34806400       1.72691800      -1.89300600  T        1        2
C       -2.83636500      -0.23480000       3.13292100  F        0        1
C       -2.36375400      -1.55227800       2.51632400  F        0        1
O       -1.01928400      -1.25100700       2.10711600  F        0        1
C       -0.83426400       0.06689300       2.12765900  F        0        1
O       -1.87263300       0.71626200       2.64356300  F        0        1
O        0.17341500       0.60847000       1.74856200  F        0        1
H       -3.82116800       0.07377100       2.79021200  F        0        1
H       -2.79346500      -0.23086600       4.22281500  F        0        1
H       -2.33400400      -2.38057100       3.22130500  F        0        1
H       -2.93038300      -1.82882800       1.62884400  F        0        1
41
Properties=species:S:1:pos:R:3:is_solvent:L:1:group_label:I:1:tags:I:1 Coordinates=T from=T ORCA-job=T Li1EC4_r07_charge_1_spin_1_liquid_t_traj_3_frame_0004=T E=T -1378.039088380287=T solvent_indices_0based="_JSON [21, 22, 23, 24, 25, 26, 27, 28, 29, 30]" complex_indices_0based="_JSON [0, 1, 2, 3, 4, 5, 6, 7, 8, 9, 10, 11, 12, 13, 14, 15, 16, 17, 18, 19, 20, 31, 32, 33, 34, 35, 36, 37, 38, 39, 40]" complex_indices_1based="_JSON [1, 2, 3, 4, 5, 6, 7, 8, 9, 10, 11, 12, 13, 14, 15, 16, 17, 18, 19, 20, 21, 32, 33, 34, 35, 36, 37, 38, 39, 40, 41]" pbc="F F F"
Li       1.47447903       0.53984250       0.21723772  F        0        1
C        5.78557461      -1.28480184       2.09659631  F        0        1
C        6.47666464       0.02468497       1.71866894  F        0        1
O        5.49850325       0.66596159       0.86888319  F        0        1