41
Properties=species:S:1:pos:R:3:is_solvent:L:1:group_label:I:1:tags:I:1 Coordinates=T from=T ORCA-job=T Li1EC4_r02_charge_1_spin_1_liquid_t_traj_3_frame_0000=T E=T -1378.044629319288=T solvent_indices_0based="_JSON [21, 22, 23, 24, 25, 26, 27, 28, 29, 30]" complex_indices_0based="_JSON [0, 1, 2, 3, 4, 5, 6, 7, 8, 9, 10, 11, 12, 13, 14, 15, 16, 17, 18, 19, 20, 31, 32, 33, 34, 35, 36, 37, 38, 39, 40]" complex_indices_1based="_JSON [1, 2, 3, 4, 5, 6, 7, 8, 9, 10, 11, 12, 13, 14, 15, 16, 17, 18, 19, 20, 21, 32, 33, 34, 35, 36, 37, 38, 39, 40, 41]" pbc="F F F"
Li      -0.08356639       0.28610676      -0.26472441  F        0        1
C        3.60458761       0.64261517       2.45124021  F        0        1
C        3.82745235       2.15265499       2.36199767  F        0        1
O        2.69388365       2.59627123       1.59290472  F        0        1
C        2.12973827       1.54740811       0.99414201  F        0        1
O        2.68547172       0.39488137       1.37156023  F        0        1
O        1.22808129       1.63509876       0.20190489  F        0        1
H        4.50514845       0.05674422       2.27968993  F        0        1
H        3.12687420       0.33452912       3.38239998  F        0        1
H        3.80782739       2.65608692       3.32628184  F        0        1
H        4.73482842       2.41889317       1.81786863  F        0        1
C        1.29294860      -0.29319670      -4.69448834  F        0        1
C        0.90619271      -1.76983695      -4.80345246  F        0        1
O        0.76236874      -2.16710821      -3.42759605  F        0        1
C        0.69072453      -1.08160761      -2.65808312  F        0        1
O        0.91390493       0.03891236      -3.34648691  F        0        1
O        0.45669890      -1.11369378      -1.47826747  F        0        1
H        2.36549543      -0.12381318      -4.79924288  F        0        1
H        0.74372281       0.35338855      -5.37577773  F        0        1
H       -0.05010179      -1.92475449      -5.30482708  F        0        1
H        1.67345798      -2.38972022      -5.26275075  F        0        1
C       -3.02218495       4.34400776      -1.14565132  T        1        2
C       -2.30914065       4.30316507       0.20593424  T        1        2
O       -1.87448274       2.93359048       0.29142873  T        1        2
C       -1.91499345       2.38348190      -0.92419124  T        1        2
O       -2.49465475       3.18570004      -1.81770795  T        1        2
O       -1.48534050       1.29094564      -1.18603421  T        1        2
H       -4.10376795       4.22779169      -1.06088849  T        1        2
H       -2.78599297       5.22452437      -1.73946533  T        1        2
H       -1.42667117       4.94360270       0.24384578  T        1        2
H       -2.96122533       4.51211940       1.05141419  T        1        2
C       -2.80656155      -3.13665146       1.38408421  F        0        1
C       -2.00595542      -3.40208067       2.66118486  F        0        1
O       -1.19400577      -2.21960123       2.78390041  F        0        1
C       -1.20946735      -1.54932712       1.63232919  F        0        1
O       -2.06579793      -2.07508924       0.75523017  F        0        1
O       -0.53150534      -0.57942300       1.41446992  F        0        1
H       -2.83722829      -3.98507466       0.70355084  F        0        1
H       -3.81755190      -2.77741215       1.58105915  F        0        1
H       -2.62361230      -3.49003893       3.55263023  F        0        1
H       -1.34216156      -4.26361051       2.57853178  F        0        1
41
Properties=species:S:1:pos:R:3:is_solvent:L:1:group_label:I:1:tags:I:1 Coordinates=T from=T ORCA-job=T Li1EC4_r02_charge_1_spin_1_liquid_t_traj_3_frame_0000=T E=T -1378.044629319288=T solvent_indices_0based="_JSON [21, 22, 23, 24, 25, 26, 27, 28, 29, 30]" complex_indices_0based="_JSON [0, 1, 2, 3, 4, 5, 6, 7, 8, 9, 10, 11, 12, 13, 14, 15, 16, 17, 18, 19, 20, 31, 32, 33, 34, 35, 36, 37, 38, 39, 40]" complex_indices_1based="_JSON [1, 2, 3, 4, 5, 6, 7, 8, 9, 10, 11, 12, 13, 14, 15, 16, 17, 18, 19, 20, 21, 32, 33, 34, 35, 36, 37, 38, 39, 40, 41]" pbc="F F F"
Li      -0.08356600       0.28610700      -0.26472400  F        0        1
C        3.60458800       0.64261500       2.45124000  F        0        1
C        3.82745200       2.15265500       2.36199800  F        0        1
O        2.69388400       2.59627100       1.59290500  F        0        1
C        2.12973800       1.54740800       0.99414200  F        0        1
O        2.68547200       0.39488100       1.37156000  F        0        1
O        1.22808100       1.63509900       0.20190500  F        0        1
H        4.50514800       0.05674400       2.27969000  F        0        1
H        3.12687400       0.33452900       3.38240000  F        0        1
H        3.80782700       2.65608700       3.32628200  F        0        1
H        4.73482800       2.41889300       1.81786900  F        0        1
C        1.29294900      -0.29319700      -4.69448800  F        0        1
C        0.90619300      -1.76983700      -4.80345200  F        0        1
O        0.76236900      -2.16710800      -3.42759600  F        0        1
C        0.69072500      -1.08160800      -2.65808300  F        0        1
O        0.91390500       0.03891200      -3.34648700  F        0        1
O        0.45669900      -1.11369400      -1.47826700  F        0        1
H        2.36549500      -0.12381300      -4.79924300  F        0        1
H        0.74372300       0.35338900      -5.37577800  F        0        1
H       -0.05010200      -1.92475400      -5.30482700  F        0        1
H        1.67345800      -2.38972000      -5.26275100  F        0        1
C       -3.02218500       4.34400800      -1.14565100  T        1        2
C       -2.30914100       4.30316500       0.20593400  T        1        2
O       -1.87448300       2.93359000       0.29142900  T        1        2
C       -1.91499300       2.38348200      -0.92419100  T        1        2
O       -2.49465500       3.18570000      -1.81770800  T        1        2
O       -1.48534100       1.29094600      -1.18603400  T        1        2
H       -4.10376800       4.22779200      -1.06088800  T        1        2
H       -2.78599300       5.22452400      -1.73946500  T        1        2
H       -1.42667100       4.94360300       0.24384600  T        1        2
H       -2.96122500       4.51211900       1.05141400  T        1        2
C       -2.80656200      -3.13665100       1.38408400  F        0        1
C       -2.00595500      -3.40208100       2.66118500  F        0        1
O       -1.19400600      -2.21960100       2.78390000  F        0        1
C       -1.20946700      -1.54932700       1.63232900  F        0        1
O       -2.06579800      -2.07508900       0.75523000  F        0        1
O       -0.53150500      -0.57942300       1.41447000  F        0        1
H       -2.83722800      -3.98507500       0.70355100  F        0        1
H       -3.81755200      -2.77741200       1.58105900  F        0        1
H       -2.62361200      -3.49003900       3.55263000  F        0        1
H       -1.34216200      -4.26361100       2.57853200  F        0        1
41
Properties=species:S:1:pos:R:3:is_solvent:L:1:group_label:I:1:tags:I:1 Coordinates=T from=T ORCA-job=T Li1EC4_r02_charge_1_spin_1_liquid_t_traj_3_frame_0001=T E=T -1378.038256180137=T solvent_indices_0based="_JSON [21, 22, 23, 24, 25, 26, 27, 28, 29, 30]" complex_indices_0based="_JSON [0, 1, 2, 3, 4, 5, 6, 7, 8, 9, 10, 11, 12, 13, 14, 15, 16, 17, 18, 19, 20, 31, 32, 33, 34, 35, 36, 37, 38, 39, 40]" complex_indices_1based="_JSON [1, 2, 3, 4, 5, 6, 7, 8, 9, 10, 11, 12, 13, 14, 15, 16, 17, 18, 19, 20, 21, 32, 33, 34, 35, 36, 37, 38, 39, 40, 41]" pbc="F F F"
Li       0.61668861       0.08649124      -0.22464307  F        0        1
C        4.54652540       1.15010163       2.30937006  F        0        1
C        4.69032146       2.57457627       1.77067093  F        0        1
O        3.47527930       2.75698943       1.01914092  F        0        1
C        2.90167326       1.57445502       0.81272721  F        0        1
O        3.52812084       0.58960397       1.45769581  F        0        1
O        1.93041553       1.41519560       0.11990948  F        0        1
H        5.44868262       0.55054649       2.20790098  F        0        1
H        4.18603752       1.11419743       3.33817044  F        0        1
H        4.73088902       3.33423438       2.54842182  F        0        1
H        5.53326344       2.69095594       1.08826581  F        0        1
C        1.40920161      -0.52167280      -4.79381975  F        0        1
C        0.75700797      -1.90468119      -4.86650528  F        0        1
O        0.71224213      -2.31414680      -3.48670574  F        0        1
C        0.93929514      -1.26158665      -2.70537948  F        0        1
O        1.27915112      -0.17806076      -3.40198130  F        0        1
O        0.85295216      -1.28999294      -1.50424288  F        0        1
H        2.47082495      -0.53485412      -5.04358214  F        0        1
H        0.89520591       0.23454645      -5.38353461  F        0        1
H       -0.26550359      -1.87513840      -5.24487866  F        0        1
H        1.34068568      -2.63504438      -5.42300870  F        0        1
C       -3.39966306       3.59186774      -0.30192056  T        1        2
C       -3.62703852       2.46033179       0.69903996  T        1        2
O       -2.93998427       1.35577209       0.08489576  T        1        2
C       -2.07348393       1.82997488      -0.83474708  T        1        2
O       -2.25059974       3.13913892      -1.03614512  T        1        2
O       -1.25724730       1.15825598      -1.39448970  T        1        2
H       -4.22938359       3.71295575      -1.00049321  T        1        2
H       -3.15988082       4.54639848       0.16188507  T        1        2
H       -3.17016325       2.65040833       1.67189556  T        1        2
H       -4.67535387       2.19486784       0.82253539  T        1        2
C       -3.24575703      -2.03452577       0.88722296  F        0        1
C       -3.35404958      -1.62075359       2.35393278  F        0        1
O       -2.29070388      -0.65801213       2.48977172  F        0        1
C       -1.45546066      -0.78531353       1.45952318  F        0        1
O       -1.89975159      -1.65222334       0.55340286  F        0        1
O       -0.41309180      -0.18627198       1.36788890  F        0        1
H       -3.35160008      -3.10464842       0.72296878  F        0        1
H       -3.92492548      -1.48097284       0.23743509  F        0        1
H       -4.29470364      -1.13451252       2.60411537  F        0        1
H       -3.16139842      -2.44157392       3.04625668  F        0        1
41
Properties=species:S:1:pos:R:3:is_solvent:L:1:group_label:I:1:tags:I:1 Coordinates=T from=T ORCA-job=T Li1EC4_r02_charge_1_spin_1_liquid_t_traj_3_frame_0001=T E=T -1378.038256180137=T solvent_indices_0based="_JSON [21, 22, 23, 24, 25, 26, 27, 28, 29, 30]" complex_indices_0based="_JSON [0, 1, 2, 3, 4, 5, 6, 7, 8, 9, 10, 11, 12, 13, 14, 15, 16, 17, 18, 19, 20, 31, 32, 33, 34, 35, 36, 37, 38, 39, 40]" complex_indices_1based="_JSON [1, 2, 3, 4, 5, 6, 7, 8, 9, 10, 11, 12, 13, 14, 15, 16, 17, 18, 19, 20, 21, 32, 33, 34, 35, 36, 37, 38, 39, 40, 41]" pbc="F F F"
Li       0.61668900       0.08649100      -0.22464300  F        0        1
C        4.54652500       1.15010200       2.30937000  F        0        1
C        4.69032100       2.57457600       1.77067100  F        0        1
O        3.47527900       2.75698900       1.01914100  F        0        1
C        2.90167300       1.57445500       0.81272700  F        0        1
O        3.52812100       0.58960400       1.45769600  F        0        1
O        1.93041600       1.41519600       0.11990900  F        0        1
H        5.44868300       0.55054600       2.20790100  F        0        1
H        4.18603800       1.11419700       3.33817000  F        0        1
H        4.73088900       3.33423400       2.54842200  F        0        1
H        5.53326300       2.69095600       1.08826600  F        0        1
C        1.40920200      -0.52167300      -4.79382000  F        0        1
C        0.75700800      -1.90468100      -4.86650500  F        0        1
O        0.71224200      -2.31414700      -3.48670600  F        0        1
C        0.93929500      -1.26158700      -2.70537900  F        0        1
O        1.27915100      -0.17806100      -3.40198100  F        0        1
O        0.85295200      -1.28999300      -1.50424300  F        0        1
H        2.47082500      -0.53485400      -5.04358200  F        0        1
H        0.89520600       0.23454600      -5.38353500  F        0        1
H       -0.26550400      -1.87513800      -5.24487900  F        0        1
H        1.34068600      -2.63504400      -5.42300900  F        0        1
C       -3.39966300       3.59186800      -0.30192100  T        1        2
C       -3.62703900       2.46033200       0.69904000  T        1        2
O       -2.93998400       1.35577200       0.08489600  T        1        2
C       -2.07348400       1.82997500      -0.83474700  T        1        2
O       -2.25060000       3.13913900      -1.03614500  T        1        2
O       -1.25724700       1.15825600      -1.39449000  T        1        2
H       -4.22938400       3.71295600      -1.00049300  T        1        2
H       -3.15988100       4.54639800       0.16188500  T        1        2
H       -3.17016300       2.65040800       1.67189600  T        1        2
H       -4.67535400       2.19486800       0.82253500  T        1        2
C       -3.24575700      -2.03452600       0.88722300  F        0        1
C       -3.35405000      -1.62075400       2.35393300  F        0        1
O       -2.29070400      -0.65801200       2.48977200  F        0        1
C       -1.45546100      -0.78531400       1.45952300  F        0        1
O       -1.89975200      -1.65222300       0.55340300  F        0        1
O       -0.41309200      -0.18627200       1.36788900  F        0        1
H       -3.35160000      -3.10464800       0.72296900  F        0        1
H       -3.92492500      -1.48097300       0.23743500  F        0        1
H       -4.29470400      -1.13451300       2.60411500  F        0        1
H       -3.16139800      -2.44157400       3.04625700  F        0        1
41
Properties=species:S:1:pos:R:3:is_solvent:L:1:group_label:I:1:tags:I:1 Coordinates=T from=T ORCA-job=T Li1EC4_r02_charge_1_spin_1_liquid_t_traj_3_frame_0002=T E=T -1378.034461746418=T solvent_indices_0based="_JSON [21, 22, 23, 24, 25, 26, 27, 28, 29, 30]" complex_indices_0based="_JSON [0, 1, 2, 3, 4, 5, 6, 7, 8, 9, 10, 11, 12, 13, 14, 15, 16, 17, 18, 19, 20, 31, 32, 33, 34, 35, 36, 37, 38, 39, 40]" complex_indices_1based="_JSON [1, 2, 3, 4, 5, 6, 7, 8, 9, 10, 11, 12, 13, 14, 15, 16, 17, 18, 19, 20, 21, 32, 33, 34, 35, 36, 37, 38, 39, 40, 41]" pbc="F F F"
Li       0.96259516      -0.02683983       0.20248600  F        0        1
C        5.21371387       0.86929811       2.46958947  F        0        1
C        5.41074975       2.20124696       1.74434416  F        0        1
O        4.13309589       2.41432600       1.11337402  F        0        1
C        3.44480105       1.27658508       1.11870795  F        0        1
O        4.05725455       0.31681537       1.80907395  F        0        1
O        2.38705301       1.13460034       0.56081639  F        0        1
H        6.04292053       0.17591836       2.34703629  F        0        1
H        4.97574152       0.98750303       3.52744550  F        0        1
H        5.60905304       3.03838498       2.41021028  F        0        1
H        6.17189963       2.15397900       0.96445667  F        0        1
C        0.92725755       0.20369594      -4.35574070  F        0        1
C       -0.29461990      -0.71949372      -4.37947359  F        0        1
O       -0.14992907      -1.48375352      -3.16932065  F        0        1
C        0.75170379      -0.90180516      -2.38794618  F        0        1
O        1.39922462       0.08345241      -3.00253967  F        0        1
O        0.97131322      -1.23691532      -1.24880084  F        0        1
H        1.72502075      -0.12121081      -5.02451412  F        0        1
H        0.68331074       1.24787844      -4.54075388  F        0        1
H       -1.23624013      -0.17348494      -4.32223229  F        0        1
H       -0.30420378      -1.40842640      -5.22185861  F        0        1
C       -4.18400534       2.54994110      -1.64905518  T        1        2
C       -3.81456743       2.55850345      -0.16654645  T        1        2
O       -2.66738064       1.69175138      -0.11993829  T        1        2
C       -2.15115235       1.57736605      -1.35988873  T        1        2
O       -2.96666090       2.11680453      -2.27751746  T        1        2
O       -1.10660380       1.05416518      -1.60971532  T        1        2
H       -4.97106497       1.83217141      -1.88755445  T        1        2
H       -4.44520597       3.53169001      -2.03884759  T        1        2
H       -3.51711142       3.54513202       0.19208563  T        1        2
H       -4.58937068       2.14783149       0.47815044  T        1        2
C       -3.35908287      -1.69749247       0.97844920  F        0        1
C       -3.42612075      -1.35026633       2.46513453  F        0        1
O       -2.28894702      -0.48542305       2.63771114  F        0        1
C       -1.46327798      -0.63975981       1.60424234  F        0        1
O       -1.99055705      -1.40518696       0.64818426  F        0        1
O       -0.36462259      -0.15012024       1.55100783  F        0        1
H       -3.55094278      -2.74626367       0.76251961  F        0        1
H       -3.99976820      -1.06277427       0.36350069  F        0        1
H       -4.32259990      -0.80418198       2.75121672  F        0        1
H       -3.29667200      -2.22036279       3.11048534  F        0        1
41
Properties=species:S:1:pos:R:3:is_solvent:L:1:group_label:I:1:tags:I:1 Coordinates=T from=T ORCA-job=T Li1EC4_r02_charge_1_spin_1_liquid_t_traj_3_frame_0002=T E=T -1378.034461746418=T solvent_indices_0based="_JSON [21, 22, 23, 24, 25, 26, 27, 28, 29, 30]" complex_indices_0based="_JSON [0, 1, 2, 3, 4, 5, 6, 7, 8, 9, 10, 11, 12, 13, 14, 15, 16, 17, 18, 19, 20, 31, 32, 33, 34, 35, 36, 37, 38, 39, 40]" complex_indices_1based="_JSON [1, 2, 3, 4, 5, 6, 7, 8, 9, 10, 11, 12, 13, 14, 15, 16, 17, 18, 19, 20, 21, 32, 33, 34, 35, 36, 37, 38, 39, 40, 41]" pbc="F F F"
Li       0.96259500      -0.02684000       0.20248600  F        0        1
C        5.21371400       0.86929800       2.46958900  F        0        1
C        5.41075000       2.20124700       1.74434400  F        0        1
O        4.13309600       2.41432600       1.11337400  F        0        1
C        3.44480100       1.27658500       1.11870800  F        0        1
O        4.05725500       0.31681500       1.80907400  F        0        1
O        2.38705300       1.13460000       0.56081600  F        0        1
H        6.04292100       0.17591800       2.34703600  F        0        1
H        4.97574200       0.98750300       3.52744600  F        0        1
H        5.60905300       3.03838500       2.41021000  F        0        1
H        6.17190000       2.15397900       0.96445700  F        0        1
C        0.92725800       0.20369600      -4.35574100  F        0        1
C       -0.29462000      -0.71949400      -4.37947400  F        0        1
O       -0.14992900      -1.48375400      -3.16932100  F        0        1
C        0.75170400      -0.90180500      -2.38794600  F        0        1
O        1.39922500       0.08345200      -3.00254000  F        0        1
O        0.97131300      -1.23691500      -1.24880100  F        0        1
H        1.72502100      -0.12121100      -5.02451400  F        0        1
H        0.68331100       1.24787800      -4.54075400  F        0        1
H       -1.23624000      -0.17348500      -4.32223200  F        0        1
H       -0.30420400      -1.40842600      -5.22185900  F        0        1
C       -4.18400500       2.54994100      -1.64905500  T        1        2
C       -3.81456700       2.55850300      -0.16654600  T        1        2
O       -2.66738100       1.69175100      -0.11993800  T        1        2
C       -2.15115200       1.57736600      -1.35988900  T        1        2
O       -2.96666100       2.11680500      -2.27751700  T        1        2
O       -1.10660400       1.05416500      -1.60971500  T        1        2
H       -4.97106500       1.83217100      -1.88755400  T        1        2
H       -4.44520600       3.53169000      -2.03884800  T        1        2
H       -3.51711100       3.54513200       0.19208600  T        1        2
H       -4.58937100       2.14783100       0.47815000  T        1        2
C       -3.35908300      -1.69749200       0.97844900  F        0        1
C       -3.42612100      -1.35026600       2.46513500  F        0        1
O       -2.28894700      -0.48542300       2.63771100  F        0        1
C       -1.46327800      -0.63976000       1.60424200  F        0        1
O       -1.99055700      -1.40518700       0.64818400  F        0        1
O       -0.36462300      -0.15012000       1.55100800  F        0        1
H       -3.55094300      -2.74626400       0.76252000  F        0        1
H       -3.99976800      -1.06277400       0.36350100  F        0        1
H       -4.32260000      -0.80418200       2.75121700  F        0        1
H       -3.29667200      -2.22036300       3.11048500  F        0        1
41
Properties=species:S:1:pos:R:3:is_solvent:L:1:group_label:I:1:tags:I:1 Coordinates=T from=T ORCA-job=T Li1EC4_r02_charge_1_spin_1_liquid_t_traj_3_frame_0003=T E=T -1378.037224761579=T solvent_indices_0based="_JSON [21, 22, 23, 24, 25, 26, 27, 28, 29, 30]" complex_indices_0based="_JSON [0, 1, 2, 3, 4, 5, 6, 7, 8, 9, 10, 11, 12, 13, 14, 15, 16, 17, 18, 19, 20, 31, 32, 33, 34, 35, 36, 37, 38, 39, 40]" complex_indices_1based="_JSON [1, 2, 3, 4, 5, 6, 7, 8, 9, 10, 11, 12, 13, 14, 15, 16, 17, 18, 19, 20, 21, 32, 33, 34, 35, 36, 37, 38, 39, 40, 41]" pbc="F F F"
Li       1.30783349       0.31719269       0.12262185  F        0        1
C        5.42723987       0.23370007       2.87991744  F        0        1
C        6.21767118       0.99026373       1.81139436  F        0        1
O        5.19093329       1.40434762       0.88834528  F        0        1
C        4.08169771       0.71142123       1.12483940  F        0        1
O        4.18271926      -0.05263345       2.21100739  F        0        1
O        3.09875078       0.76847630       0.43132048  F        0        1
H        5.88228020      -0.70865341       3.17695870  F        0        1
H        5.20834630       0.84042465       3.75949589  F        0        1
H        6.72126761       1.87907868       2.18517770  F        0        1
H        6.92312961       0.35659608       1.27252189  F        0        1
C       -0.09202336       1.51719926      -3.88934412  F        0        1
C       -0.48951392       0.15710978      -4.46912964  F        0        1
O       -0.24119070      -0.74963312      -3.37903298  F        0        1
C        0.44752776      -0.12555136      -2.43255422  F        0        1
O        0.66688005       1.15659250      -2.72223956  F        0        1
O        0.85222642      -0.65760726      -1.42837444  F        0        1
H        0.54813149       2.10092591      -4.54786204  F        0        1
H       -0.95011695       2.10668862      -3.56851334  F        0        1
H       -1.54352694       0.09340587      -4.73190585  F        0        1
H        0.12931746      -0.14780514      -5.31370870  F        0        1
C       -4.79599001       1.66390949      -2.64566553  T        1        2
C       -5.17826446       1.65856002      -1.16824048  T        1        2
O       -4.06089013       0.98902724      -0.55527762  T        1        2
C       -3.00901362       1.02349578      -1.39229228  T        1        2
O       -3.36761333       1.49599441      -2.60059876  T        1        2
O       -1.90025310       0.67888442      -1.10902837  T        1        2
H       -5.22529554       0.82604089      -3.19781246  T        1        2
H       -5.02003129       2.60083484      -3.15135100  T        1        2
H       -5.25063482       2.66190887      -0.74521542  T        1        2
H       -6.08284907       1.09378131      -0.95271039  T        1        2
C       -2.56640264      -1.30363931       1.64963525  F        0        1
C       -3.07590739      -0.08034321       2.41066366  F        0        1
O       -2.08016420       0.91694343       2.11313534  F        0        1
C       -1.00272173       0.32143264       1.61822197  F        0        1
O       -1.17712005      -0.98770371       1.44984331  F        0        1
O        0.03044304       0.89413231       1.37057595  F        0        1
H       -2.63242680      -2.23115273       2.21413280  F        0        1
H       -3.03220972      -1.41672529       0.67050636  F        0        1
H       -4.03721829       0.28249905       2.05592560  F        0        1
H       -3.09773471      -0.22674045       3.49161903  F        0        1
41
Properties=species:S:1:pos:R:3:is_solvent:L:1:group_label:I:1:tags:I:1 Coordinates=T from=T ORCA-job=T Li1EC4_r02_charge_1_spin_1_liquid_t_traj_3_frame_0003=T E=T -1378.037224761579=T solvent_indices_0based="_JSON [21, 22, 23, 24, 25, 26, 27, 28, 29, 30]" complex_indices_0based="_JSON [0, 1, 2, 3, 4, 5, 6, 7, 8, 9, 10, 11, 12, 13, 14, 15, 16, 17, 18, 19, 20, 31, 32, 33, 34, 35, 36, 37, 38, 39, 40]" complex_indices_1based="_JSON [1, 2, 3, 4, 5, 6, 7, 8, 9, 10, 11, 12, 13, 14, 15, 16, 17, 18, 19, 20, 21, 32, 33, 34, 35, 36, 37, 38, 39, 40, 41]" pbc="F F F"
Li       1.30783300       0.31719300       0.12262200  F        0        1
C        5.42724000       0.23370000       2.87991700  F        0        1
C        6.21767100       0.99026400       1.81139400  F        0        1
O        5.19093300       1.40434800       0.88834500  F        0        1
C        4.08169800       0.71142100       1.12483900  F        0        1
O        4.18271900      -0.05263300       2.21100700  F        0        1
O        3.09875100       0.76847600       0.43132000  F        0        1
H        5.88228000      -0.70865300       3.17695900  F        0        1
H        5.20834600       0.84042500       3.75949600  F        0        1
H        6.72126800       1.87907900       2.18517800  F        0        1
H        6.92313000       0.35659600       1.27252200  F        0        1
C       -0.09202300       1.51719900      -3.88934400  F        0        1
C       -0.48951400       0.15711000      -4.46913000  F        0        1
O       -0.24119100      -0.74963300      -3.37903300  F        0        1
C        0.44752800      -0.12555100      -2.43255400  F        0        1
O        0.66688000       1.15659300      -2.72224000  F        0        1
O        0.85222600      -0.65760700      -1.42837400  F        0        1
H        0.54813100       2.10092600      -4.54786200  F        0        1
H       -0.95011700       2.10668900      -3.56851300  F        0        1
H       -1.54352700       0.09340600      -4.73190600  F        0        1
H        0.12931700      -0.14780500      -5.31370900  F        0        1
C       -4.79599000       1.66390900      -2.64566600  T        1        2
C       -5.17826400       1.65856000      -1.16824000  T        1        2
O       -4.06089000       0.98902700      -0.55527800  T        1        2
C       -3.00901400       1.02349600      -1.39229200  T        1        2
O       -3.36761300       1.49599400      -2.60059900  T        1        2
O       -1.90025300       0.67888400      -1.10902800  T        1        2
H       -5.22529600       0.82604100      -3.19781200  T        1        2
H       -5.02003100       2.60083500      -3.15135100  T        1        2
H       -5.25063500       2.66190900      -0.74521500  T        1        2
H       -6.08284900       1.09378100      -0.95271000  T        1        2
C       -2.56640300      -1.30363900       1.64963500  F        0        1
C       -3.07590700      -0.08034300       2.41066400  F        0        1
O       -2.08016400       0.91694300       2.11313500  F        0        1
C       -1.00272200       0.32143300       1.61822200  F        0        1
O       -1.17712000      -0.98770400       1.44984300  F        0        1
O        0.03044300       0.89413200       1.37057600  F        0        1
H       -2.63242700      -2.23115300       2.21413300  F        0        1
H       -3.03221000      -1.41672500       0.67050600  F        0        1
H       -4.03721800       0.28249900       2.05592600  F        0        1
H       -3.09773500      -0.22674000       3.49161900  F        0        1
41
Properties=species:S:1:pos:R:3:is_solvent:L:1:group_label:I:1:tags:I:1 Coordinates=T from=T ORCA-job=T Li1EC4_r02_charge_1_spin_1_liquid_t_traj_3_frame_0004=T E=T -1378.038587940625=T solvent_indices_0based="_JSON [21, 22, 23, 24, 25, 26, 27, 28, 29, 30]" complex_indices_0based="_JSON [0, 1, 2, 3, 4, 5, 6, 7, 8, 9, 10, 11, 12, 13, 14, 15, 16, 17, 18, 19, 20, 31, 32, 33, 34, 35, 36, 37, 38, 39, 40]" complex_indices_1based="_JSON [1, 2, 3, 4, 5, 6, 7, 8, 9, 10, 11, 12, 13, 14, 15, 16, 17, 18, 19, 20, 21, 32, 33, 34, 35, 36, 37, 38, 39, 40, 41]" pbc="F F F"
Li       1.54584106       0.61308875       0.00234827  F        0        1
C        5.40323582      -0.22290145       2.87345670  F        0        1
C        6.38908164       0.39465063       1.88045945  F        0        1
O        5.52042146       0.99731042       0.90019267  F        0        1