41
Properties=species:S:1:pos:R:3:is_solvent:L:1:group_label:I:1:tags:I:1 Coordinates=T from=T ORCA-job=T Li1EC4_r05_charge_1_spin_1_liquid_t_traj_1_frame_0000=T E=T -1378.044246659713=T solvent_indices_0based="_JSON [1, 2, 3, 4, 5, 6, 7, 8, 9, 10]" complex_indices_0based="_JSON [0, 11, 12, 13, 14, 15, 16, 17, 18, 19, 20, 21, 22, 23, 24, 25, 26, 27, 28, 29, 30, 31, 32, 33, 34, 35, 36, 37, 38, 39, 40]" complex_indices_1based="_JSON [1, 12, 13, 14, 15, 16, 17, 18, 19, 20, 21, 22, 23, 24, 25, 26, 27, 28, 29, 30, 31, 32, 33, 34, 35, 36, 37, 38, 39, 40, 41]" pbc="F F F"
Li      -0.26835642      -0.47034803       0.91023000  F        0        1
C        4.18553289       0.17940806      -0.02632645  T        1        2
C        4.18725001       1.70176803      -0.16499859  T        1        2
O        2.78926366       2.03137652      -0.06296570  T        1        2
C        2.12745550       0.99098456       0.44395298  T        1        2
O        2.90965244      -0.07994930       0.58722760  T        1        2
O        0.96138244       1.02077406       0.74072628  T        1        2
H        4.21268406      -0.33653375      -0.98721848  T        1        2
H        4.96646057      -0.20218459       0.62795388  T        1        2
H        4.71693441       2.20377963       0.64601405  T        1        2
H        4.55438408       2.05346912      -1.12682777  T        1        2
C       -1.55364273      -4.51097018      -1.12477213  F        0        1
C       -0.82784042      -4.29676852      -2.45319885  F        0        1
O        0.07517256      -3.21726653      -2.15236166  F        0        1
C       -0.30832282      -2.62269047      -1.02176994  F        0        1
O       -1.30905720      -3.27635270      -0.42617239  F        0        1
O        0.19275617      -1.61786128      -0.59250313  F        0        1
H       -2.62881977      -4.64017526      -1.22983970  F        0        1
H       -1.13192751      -5.32654671      -0.53543391  F        0        1
H       -0.24282633      -5.15545554      -2.77585864  F        0        1
H       -1.49316053      -3.97267646      -3.25476494  F        0        1
C       -2.79971914       3.43120689       1.38149397  F        0        1
C       -4.01621758       2.99818428       0.56411970  F        0        1
O       -3.60293142       1.72733431       0.02999352  F        0        1
C       -2.54266787       1.28690706       0.70928748  F        0        1
O       -2.09937850       2.19053282       1.58619490  F        0        1
O       -2.05083030       0.20146670       0.54802856  F        0        1
H       -2.14003136       4.10991615       0.83879230  F        0        1
H       -3.05109882       3.85006538       2.35362905  F        0        1
H       -4.90639644       2.83978137       1.17494195  F        0        1
H       -4.24585352       3.66254240      -0.26626334  F        0        1
C       -1.93766653      -0.81703661       5.41028026  F        0        1
C       -1.22637712      -2.12956632       5.73830861  F        0        1
O       -0.29865792      -2.26928870       4.64772387  F        0        1
C       -0.65436144      -1.45223956       3.65575052  F        0        1
O       -1.66324381      -0.64819527       4.00719921  F        0        1
O       -0.12653298      -1.44402430       2.57671488  F        0        1
H       -3.01619110      -0.85701791       5.54860604  F        0        1
H       -1.52216887       0.03806102       5.94573683  F        0        1
H       -0.66319099      -2.10165655       6.66877353  F        0        1
H       -1.89590249      -2.99098764       5.73122003  F        0        1
41
Properties=species:S:1:pos:R:3:is_solvent:L:1:group_label:I:1:tags:I:1 Coordinates=T from=T ORCA-job=T Li1EC4_r05_charge_1_spin_1_liquid_t_traj_1_frame_0000=T E=T -1378.044246659713=T solvent_indices_0based="_JSON [1, 2, 3, 4, 5, 6, 7, 8, 9, 10]" complex_indices_0based="_JSON [0, 11, 12, 13, 14, 15, 16, 17, 18, 19, 20, 21, 22, 23, 24, 25, 26, 27, 28, 29, 30, 31, 32, 33, 34, 35, 36, 37, 38, 39, 40]" complex_indices_1based="_JSON [1, 12, 13, 14, 15, 16, 17, 18, 19, 20, 21, 22, 23, 24, 25, 26, 27, 28, 29, 30, 31, 32, 33, 34, 35, 36, 37, 38, 39, 40, 41]" pbc="F F F"
Li      -0.26835600      -0.47034800       0.91023000  F        0        1
C        4.18553300       0.17940800      -0.02632600  T        1        2
C        4.18725000       1.70176800      -0.16499900  T        1        2
O        2.78926400       2.03137700      -0.06296600  T        1        2
C        2.12745500       0.99098500       0.44395300  T        1        2
O        2.90965200      -0.07994900       0.58722800  T        1        2
O        0.96138200       1.02077400       0.74072600  T        1        2
H        4.21268400      -0.33653400      -0.98721800  T        1        2
H        4.96646100      -0.20218500       0.62795400  T        1        2
H        4.71693400       2.20378000       0.64601400  T        1        2
H        4.55438400       2.05346900      -1.12682800  T        1        2
C       -1.55364300      -4.51097000      -1.12477200  F        0        1
C       -0.82784000      -4.29676900      -2.45319900  F        0        1
O        0.07517300      -3.21726700      -2.15236200  F        0        1
C       -0.30832300      -2.62269000      -1.02177000  F        0        1
O       -1.30905700      -3.27635300      -0.42617200  F        0        1
O        0.19275600      -1.61786100      -0.59250300  F        0        1
H       -2.62882000      -4.64017500      -1.22984000  F        0        1
H       -1.13192800      -5.32654700      -0.53543400  F        0        1
H       -0.24282600      -5.15545600      -2.77585900  F        0        1
H       -1.49316100      -3.97267600      -3.25476500  F        0        1
C       -2.79971900       3.43120700       1.38149400  F        0        1
C       -4.01621800       2.99818400       0.56412000  F        0        1
O       -3.60293100       1.72733400       0.02999400  F        0        1
C       -2.54266800       1.28690700       0.70928700  F        0        1
O       -2.09937900       2.19053300       1.58619500  F        0        1
O       -2.05083000       0.20146700       0.54802900  F        0        1
H       -2.14003100       4.10991600       0.83879200  F        0        1
H       -3.05109900       3.85006500       2.35362900  F        0        1
H       -4.90639600       2.83978100       1.17494200  F        0        1
H       -4.24585400       3.66254200      -0.26626300  F        0        1
C       -1.93766700      -0.81703700       5.41028000  F        0        1
C       -1.22637700      -2.12956600       5.73830900  F        0        1
O       -0.29865800      -2.26928900       4.64772400  F        0        1
C       -0.65436100      -1.45224000       3.65575100  F        0        1
O       -1.66324400      -0.64819500       4.00719900  F        0        1
O       -0.12653300      -1.44402400       2.57671500  F        0        1
H       -3.01619100      -0.85701800       5.54860600  F        0        1
H       -1.52216900       0.03806100       5.94573700  F        0        1
H       -0.66319100      -2.10165700       6.66877400  F        0        1
H       -1.89590200      -2.99098800       5.73122000  F        0        1
41
Properties=species:S:1:pos:R:3:is_solvent:L:1:group_label:I:1:tags:I:1 Coordinates=T from=T ORCA-job=T Li1EC4_r05_charge_1_spin_1_liquid_t_traj_1_frame_0001=T E=T -1378.039625884092=T solvent_indices_0based="_JSON [1, 2, 3, 4, 5, 6, 7, 8, 9, 10]" complex_indices_0based="_JSON [0, 11, 12, 13, 14, 15, 16, 17, 18, 19, 20, 21, 22, 23, 24, 25, 26, 27, 28, 29, 30, 31, 32, 33, 34, 35, 36, 37, 38, 39, 40]" complex_indices_1based="_JSON [1, 12, 13, 14, 15, 16, 17, 18, 19, 20, 21, 22, 23, 24, 25, 26, 27, 28, 29, 30, 31, 32, 33, 34, 35, 36, 37, 38, 39, 40, 41]" pbc="F F F"
Li      -0.47152948      -0.76273657       1.20761026  F        0        1
C        3.70026956       0.46116908       0.04169344  T        1        2
C        3.67787848       1.90687701      -0.45334797  T        1        2
O        2.27617235       2.23457527      -0.41121784  T        1        2
C        1.63681222       1.33933044       0.34644615  T        1        2
O        2.44455785       0.34585414       0.73188815  T        1        2
O        0.47653744       1.41558432       0.65017285  T        1        2
H        3.71221327      -0.26752330      -0.77053586  T        1        2
H        4.50307575       0.25173353       0.74553839  T        1        2
H        4.20927760       2.59268361       0.20837402  T        1        2
H        4.02866853       2.02636445      -1.47625685  T        1        2
C       -1.47806884      -4.44668615      -1.57404185  F        0        1
C       -0.56220116      -4.02030901      -2.72231079  F        0        1
O        0.29906095      -3.04626006      -2.10028877  F        0        1
C       -0.23384811      -2.66352578      -0.94236830  F        0        1
O       -1.30892638      -3.38138212      -0.61885286  F        0        1
O        0.21069819      -1.77258282      -0.26470685  F        0        1
H       -2.52929431      -4.49770898      -1.84950682  F        0        1
H       -1.16716119      -5.37949000      -1.10189321  F        0        1
H        0.05606788      -4.82586449      -3.11256165  F        0        1
H       -1.09738033      -3.52915792      -3.53591924  F        0        1
C       -2.29123400       3.30084644       1.38683135  F        0        1
C       -3.02118419       3.19541419       0.05062636  F        0        1
O       -2.79545330       1.82037382      -0.31816966  F        0        1
C       -2.39306026       1.14177840       0.75210728  F        0        1
O       -2.23767950       1.92818148       1.81807755  F        0        1
O       -2.19904449      -0.04845525       0.75951749  F        0        1
H       -1.26621617       3.65812804       1.27914993  F        0        1
H       -2.82540903       3.87982158       2.13696402  F        0        1
H       -4.09767730       3.35227114       0.13528985  F        0        1
H       -2.60553411       3.83123489      -0.72787550  F        0        1
C       -2.07609365      -1.20855383       5.69047554  F        0        1
C       -0.77767470      -1.78299271       6.25735935  F        0        1
O        0.15620996      -1.58217350       5.17817281  F        0        1
C       -0.51505420      -1.33055788       4.05749554  F        0        1
O       -1.82402524      -1.19460366       4.27210643  F        0        1
O        0.00527307      -1.23910329       2.97521319  F        0        1
H       -2.94854941      -1.83031383       5.87911195  F        0        1
H       -2.26522128      -0.18348768       6.01195124  F        0        1
H       -0.40870018      -1.25410989       7.13337086  F        0        1
H       -0.83644782      -2.85317729       6.46018748  F        0        1
41
Properties=species:S:1:pos:R:3:is_solvent:L:1:group_label:I:1:tags:I:1 Coordinates=T from=T ORCA-job=T Li1EC4_r05_charge_1_spin_1_liquid_t_traj_1_frame_0001=T E=T -1378.039625884092=T solvent_indices_0based="_JSON [1, 2, 3, 4, 5, 6, 7, 8, 9, 10]" complex_indices_0based="_JSON [0, 11, 12, 13, 14, 15, 16, 17, 18, 19, 20, 21, 22, 23, 24, 25, 26, 27, 28, 29, 30, 31, 32, 33, 34, 35, 36, 37, 38, 39, 40]" complex_indices_1based="_JSON [1, 12, 13, 14, 15, 16, 17, 18, 19, 20, 21, 22, 23, 24, 25, 26, 27, 28, 29, 30, 31, 32, 33, 34, 35, 36, 37, 38, 39, 40, 41]" pbc="F F F"
Li      -0.47152900      -0.76273700       1.20761000  F        0        1
C        3.70027000       0.46116900       0.04169300  T        1        2
C        3.67787800       1.90687700      -0.45334800  T        1        2
O        2.27617200       2.23457500      -0.41121800  T        1        2
C        1.63681200       1.33933000       0.34644600  T        1        2
O        2.44455800       0.34585400       0.73188800  T        1        2
O        0.47653700       1.41558400       0.65017300  T        1        2
H        3.71221300      -0.26752300      -0.77053600  T        1        2
H        4.50307600       0.25173400       0.74553800  T        1        2
H        4.20927800       2.59268400       0.20837400  T        1        2
H        4.02866900       2.02636400      -1.47625700  T        1        2
C       -1.47806900      -4.44668600      -1.57404200  F        0        1
C       -0.56220100      -4.02030900      -2.72231100  F        0        1
O        0.29906100      -3.04626000      -2.10028900  F        0        1
C       -0.23384800      -2.66352600      -0.94236800  F        0        1
O       -1.30892600      -3.38138200      -0.61885300  F        0        1
O        0.21069800      -1.77258300      -0.26470700  F        0        1
H       -2.52929400      -4.49770900      -1.84950700  F        0        1
H       -1.16716100      -5.37949000      -1.10189300  F        0        1
H        0.05606800      -4.82586400      -3.11256200  F        0        1
H       -1.09738000      -3.52915800      -3.53591900  F        0        1
C       -2.29123400       3.30084600       1.38683100  F        0        1
C       -3.02118400       3.19541400       0.05062600  F        0        1
O       -2.79545300       1.82037400      -0.31817000  F        0        1
C       -2.39306000       1.14177800       0.75210700  F        0        1
O       -2.23768000       1.92818100       1.81807800  F        0        1
O       -2.19904400      -0.04845500       0.75951700  F        0        1
H       -1.26621600       3.65812800       1.27915000  F        0        1
H       -2.82540900       3.87982200       2.13696400  F        0        1
H       -4.09767700       3.35227100       0.13529000  F        0        1
H       -2.60553400       3.83123500      -0.72787500  F        0        1
C       -2.07609400      -1.20855400       5.69047600  F        0        1
C       -0.77767500      -1.78299300       6.25735900  F        0        1
O        0.15621000      -1.58217300       5.17817300  F        0        1
C       -0.51505400      -1.33055800       4.05749600  F        0        1
O       -1.82402500      -1.19460400       4.27210600  F        0        1
O        0.00527300      -1.23910300       2.97521300  F        0        1
H       -2.94854900      -1.83031400       5.87911200  F        0        1
H       -2.26522100      -0.18348800       6.01195100  F        0        1
H       -0.40870000      -1.25411000       7.13337100  F        0        1
H       -0.83644800      -2.85317700       6.46018700  F        0        1
41
Properties=species:S:1:pos:R:3:is_solvent:L:1:group_label:I:1:tags:I:1 Coordinates=T from=T ORCA-job=T Li1EC4_r05_charge_1_spin_1_liquid_t_traj_1_frame_0002=T E=T -1378.042849826129=T solvent_indices_0based="_JSON [1, 2, 3, 4, 5, 6, 7, 8, 9, 10]" complex_indices_0based="_JSON [0, 11, 12, 13, 14, 15, 16, 17, 18, 19, 20, 21, 22, 23, 24, 25, 26, 27, 28, 29, 30, 31, 32, 33, 34, 35, 36, 37, 38, 39, 40]" complex_indices_1based="_JSON [1, 12, 13, 14, 15, 16, 17, 18, 19, 20, 21, 22, 23, 24, 25, 26, 27, 28, 29, 30, 31, 32, 33, 34, 35, 36, 37, 38, 39, 40, 41]" pbc="F F F"
Li       0.19762444      -0.56361451       0.61853562  F        0        1
C        2.89835965       0.59966841      -0.69046838  T        1        2
C        3.70847601       1.75547359      -0.10108742  T        1        2
O        2.69985464       2.60221420       0.48248511  T        1        2
C        1.56090345       1.92603509       0.61277026  T        1        2
O        1.64660016       0.71471986       0.01221368  T        1        2
O        0.57495722       2.29956081       1.17054203  T        1        2
H        2.70135217       0.71191367      -1.75721910  T        1        2
H        3.31904529      -0.38294621      -0.48742559  T        1        2
H        4.38753367       1.43856365       0.69128466  T        1        2
H        4.24770270       2.33320375      -0.84844774  T        1        2
C       -1.27832288      -4.71275681      -1.30724245  F        0        1
C       -0.47381028      -4.51219650      -2.59161991  F        0        1
O        0.49008036      -3.50868932      -2.21052306  F        0        1
C        0.09425223      -2.92823464      -1.08223279  F        0        1
O       -0.97258416      -3.52278150      -0.55265638  F        0        1
O        0.64482073      -1.97301698      -0.59411343  F        0        1
H       -2.35377512      -4.75074426      -1.46615765  F        0        1
H       -0.95252129      -5.57779226      -0.72809291  F        0        1
H        0.06478363      -5.39910379      -2.91721659  F        0        1
H       -1.07113501      -4.11106029      -3.41081387  F        0        1
C       -2.25585601       2.78392881       2.45694346  F        0        1
C       -2.67348529       3.32590216       1.08563439  F        0        1
O       -2.30715585       2.26437909       0.18609482  F        0        1
C       -1.92692682       1.19965907       0.87522661  F        0        1
O       -2.02405325       1.38634955       2.19519963  F        0        1
O       -1.55557080       0.16836032       0.37198075  F        0        1
H       -1.32254671       3.21711777       2.81413557  F        0        1
H       -3.03658744       2.86719077       3.21058276  F        0        1
H       -3.74699017       3.49384330       0.99437881  F        0        1
H       -2.12334114       4.21871701       0.79586402  F        0        1
C       -1.97464565      -1.20706609       4.61644255  F        0        1
C       -0.93614880      -0.54437141       5.52047558  F        0        1
O        0.05890803      -0.09604045       4.57977030  F        0        1
C       -0.12224581      -0.72209979       3.42040757  F        0        1
O       -1.22251343      -1.47402232       3.41882603  F        0        1
O        0.62806670      -0.62712389       2.48235332  F        0        1
H       -2.35480683      -2.15024356       5.00289760  F        0        1
H       -2.79919402      -0.54148750       4.35715707  F        0        1
H       -1.31253187       0.32161696       6.06112036  F        0        1
H       -0.46192051      -1.24186025       6.21212524  F        0        1
41
Properties=species:S:1:pos:R:3:is_solvent:L:1:group_label:I:1:tags:I:1 Coordinates=T from=T ORCA-job=T Li1EC4_r05_charge_1_spin_1_liquid_t_traj_1_frame_0002=T E=T -1378.042849826129=T solvent_indices_0based="_JSON [1, 2, 3, 4, 5, 6, 7, 8, 9, 10]" complex_indices_0based="_JSON [0, 11, 12, 13, 14, 15, 16, 17, 18, 19, 20, 21, 22, 23, 24, 25, 26, 27, 28, 29, 30, 31, 32, 33, 34, 35, 36, 37, 38, 39, 40]" complex_indices_1based="_JSON [1, 12, 13, 14, 15, 16, 17, 18, 19, 20, 21, 22, 23, 24, 25, 26, 27, 28, 29, 30, 31, 32, 33, 34, 35, 36, 37, 38, 39, 40, 41]" pbc="F F F"
Li       0.19762400      -0.56361500       0.61853600  F        0        1
C        2.89836000       0.59966800      -0.69046800  T        1        2
C        3.70847600       1.75547400      -0.10108700  T        1        2
O        2.69985500       2.60221400       0.48248500  T        1        2
C        1.56090300       1.92603500       0.61277000  T        1        2
O        1.64660000       0.71472000       0.01221400  T        1        2
O        0.57495700       2.29956100       1.17054200  T        1        2
H        2.70135200       0.71191400      -1.75721900  T        1        2
H        3.31904500      -0.38294600      -0.48742600  T        1        2
H        4.38753400       1.43856400       0.69128500  T        1        2
H        4.24770300       2.33320400      -0.84844800  T        1        2
C       -1.27832300      -4.71275700      -1.30724200  F        0        1
C       -0.47381000      -4.51219700      -2.59162000  F        0        1
O        0.49008000      -3.50868900      -2.21052300  F        0        1
C        0.09425200      -2.92823500      -1.08223300  F        0        1
O       -0.97258400      -3.52278200      -0.55265600  F        0        1
O        0.64482100      -1.97301700      -0.59411300  F        0        1
H       -2.35377500      -4.75074400      -1.46615800  F        0        1
H       -0.95252100      -5.57779200      -0.72809300  F        0        1
H        0.06478400      -5.39910400      -2.91721700  F        0        1
H       -1.07113500      -4.11106000      -3.41081400  F        0        1
C       -2.25585600       2.78392900       2.45694300  F        0        1
C       -2.67348500       3.32590200       1.08563400  F        0        1
O       -2.30715600       2.26437900       0.18609500  F        0        1
C       -1.92692700       1.19965900       0.87522700  F        0        1
O       -2.02405300       1.38635000       2.19520000  F        0        1
O       -1.55557100       0.16836000       0.37198100  F        0        1
H       -1.32254700       3.21711800       2.81413600  F        0        1
H       -3.03658700       2.86719100       3.21058300  F        0        1
H       -3.74699000       3.49384300       0.99437900  F        0        1
H       -2.12334100       4.21871700       0.79586400  F        0        1
C       -1.97464600      -1.20706600       4.61644300  F        0        1
C       -0.93614900      -0.54437100       5.52047600  F        0        1
O        0.05890800      -0.09604000       4.57977000  F        0        1
C       -0.12224600      -0.72210000       3.42040800  F        0        1
O       -1.22251300      -1.47402200       3.41882600  F        0        1
O        0.62806700      -0.62712400       2.48235300  F        0        1
H       -2.35480700      -2.15024400       5.00289800  F        0        1
H       -2.79919400      -0.54148700       4.35715700  F        0        1
H       -1.31253200       0.32161700       6.06112000  F        0        1
H       -0.46192100      -1.24186000       6.21212500  F        0        1
41
Properties=species:S:1:pos:R:3:is_solvent:L:1:group_label:I:1:tags:I:1 Coordinates=T from=T ORCA-job=T Li1EC4_r05_charge_1_spin_1_liquid_t_traj_1_frame_0003=T E=T -1378.043458851009=T solvent_indices_0based="_JSON [1, 2, 3, 4, 5, 6, 7, 8, 9, 10]" complex_indices_0based="_JSON [0, 11, 12, 13, 14, 15, 16, 17, 18, 19, 20, 21, 22, 23, 24, 25, 26, 27, 28, 29, 30, 31, 32, 33, 34, 35, 36, 37, 38, 39, 40]" complex_indices_1based="_JSON [1, 12, 13, 14, 15, 16, 17, 18, 19, 20, 21, 22, 23, 24, 25, 26, 27, 28, 29, 30, 31, 32, 33, 34, 35, 36, 37, 38, 39, 40, 41]" pbc="F F F"
Li       0.09926606      -0.79279005       0.68599414  F        0        1
C        2.65846220       0.46485189      -0.59023317  T        1        2
C        3.59523982       1.56159731      -0.08914210  T        1        2
O        2.68608374       2.56832925       0.39064702  T        1        2
C        1.47759905       2.03870472       0.57707777  T        1        2
O        1.43109910       0.76438607       0.10494894  T        1        2
O        0.55051401       2.59465477       1.08181203  T        1        2
H        2.46399246       0.52309980      -1.66213917  T        1        2
H        2.96993056      -0.54300365      -0.32582652  T        1        2
H        4.22012076       1.24006761       0.74557440  T        1        2
H        4.20930975       1.99941345      -0.87162793  T        1        2
C       -1.22563985      -4.56750887      -1.92914935  F        0        1
C       -0.11694252      -4.38952367      -2.96941520  F        0        1
O        0.80120701      -3.49247790      -2.31041123  F        0        1
C        0.19680798      -2.93793049      -1.26681600  F        0        1
O       -1.00555968      -3.45716680      -1.03610093  F        0        1
O        0.68784332      -2.05709158      -0.60367386  F        0        1
H       -2.22998867      -4.48192494      -2.33916053  F        0        1
H       -1.13025349      -5.48886387      -1.35595664  F        0        1
H        0.41419375      -5.30895732      -3.20720871  F        0        1
H       -0.46204140      -3.90662308      -3.88428764  F        0        1
C       -2.17725517       2.82196387       2.51389252  F        0        1
C       -2.66102722       3.28697814       1.13678412  F        0        1
O       -2.33834011       2.17651290       0.27883496  F        0        1
C       -1.91474878       1.15388934       1.00362525  F        0        1
O       -1.93577850       1.41276260       2.31458140  F        0        1
O       -1.57353147       0.09492391       0.53495790  F        0        1
H       -1.23487167       3.28268288       2.80610090  F        0        1
H       -2.92726442       2.93368881       3.29637837  F        0        1
H       -3.73737900       3.45249661       1.08156227  F        0        1
H       -2.13141677       4.16472357       0.77143257  F        0        1
C       -1.65876593      -0.77895186       5.05807249  F        0        1
C       -0.50234631       0.04776192       5.62338435  F        0        1
O        0.36666767       0.20139225       4.48620886  F        0        1
C        0.00656291      -0.65522284       3.53559869  F        0        1
O       -1.09951965      -1.32412482       3.84804483  F        0        1
O        0.62746082      -0.81259777       2.51388055  F        0        1
H       -1.95700385      -1.60327740       5.70262718  F        0        1
H       -2.52614600      -0.17351311       4.78803817  F        0        1
H       -0.79897004       1.03699947       5.96866519  F        0        1
H        0.05162914      -0.46946604       6.40680766  F        0        1
41
Properties=species:S:1:pos:R:3:is_solvent:L:1:group_label:I:1:tags:I:1 Coordinates=T from=T ORCA-job=T Li1EC4_r05_charge_1_spin_1_liquid_t_traj_1_frame_0003=T E=T -1378.043458851009=T solvent_indices_0based="_JSON [1, 2, 3, 4, 5, 6, 7, 8, 9, 10]" complex_indices_0based="_JSON [0, 11, 12, 13, 14, 15, 16, 17, 18, 19, 20, 21, 22, 23, 24, 25, 26, 27, 28, 29, 30, 31, 32, 33, 34, 35, 36, 37, 38, 39, 40]" complex_indices_1based="_JSON [1, 12, 13, 14, 15, 16, 17, 18, 19, 20, 21, 22, 23, 24, 25, 26, 27, 28, 29, 30, 31, 32, 33, 34, 35, 36, 37, 38, 39, 40, 41]" pbc="F F F"
Li       0.09926600      -0.79279000       0.68599400  F        0        1
C        2.65846200       0.46485200      -0.59023300  T        1        2
C        3.59524000       1.56159700      -0.08914200  T        1        2
O        2.68608400       2.56832900       0.39064700  T        1        2
C        1.47759900       2.03870500       0.57707800  T        1        2
O        1.43109900       0.76438600       0.10494900  T        1        2
O        0.55051400       2.59465500       1.08181200  T        1        2
H        2.46399200       0.52310000      -1.66213900  T        1        2
H        2.96993100      -0.54300400      -0.32582700  T        1        2
H        4.22012100       1.24006800       0.74557400  T        1        2
H        4.20931000       1.99941300      -0.87162800  T        1        2
C       -1.22564000      -4.56750900      -1.92914900  F        0        1
C       -0.11694300      -4.38952400      -2.96941500  F        0        1
O        0.80120700      -3.49247800      -2.31041100  F        0        1
C        0.19680800      -2.93793000      -1.26681600  F        0        1
O       -1.00556000      -3.45716700      -1.03610100  F        0        1
O        0.68784300      -2.05709200      -0.60367400  F        0        1
H       -2.22998900      -4.48192500      -2.33916100  F        0        1
H       -1.13025300      -5.48886400      -1.35595700  F        0        1
H        0.41419400      -5.30895700      -3.20720900  F        0        1
H       -0.46204100      -3.90662300      -3.88428800  F        0        1
C       -2.17725500       2.82196400       2.51389300  F        0        1
C       -2.66102700       3.28697800       1.13678400  F        0        1
O       -2.33834000       2.17651300       0.27883500  F        0        1
C       -1.91474900       1.15388900       1.00362500  F        0        1
O       -1.93577900       1.41276300       2.31458100  F        0        1
O       -1.57353100       0.09492400       0.53495800  F        0        1
H       -1.23487200       3.28268300       2.80610100  F        0        1
H       -2.92726400       2.93368900       3.29637800  F        0        1
H       -3.73737900       3.45249700       1.08156200  F        0        1
H       -2.13141700       4.16472400       0.77143300  F        0        1
C       -1.65876600      -0.77895200       5.05807200  F        0        1
C       -0.50234600       0.04776200       5.62338400  F        0        1
O        0.36666800       0.20139200       4.48620900  F        0        1
C        0.00656300      -0.65522300       3.53559900  F        0        1
O       -1.09952000      -1.32412500       3.84804500  F        0        1
O        0.62746100      -0.81259800       2.51388100  F        0        1
H       -1.95700400      -1.60327700       5.70262700  F        0        1
H       -2.52614600      -0.17351300       4.78803800  F        0        1
H       -0.79897000       1.03699900       5.96866500  F        0        1
H        0.05162900      -0.46946600       6.40680800  F        0        1
41
Properties=species:S:1:pos:R:3:is_solvent:L:1:group_label:I:1:tags:I:1 Coordinates=T from=T ORCA-job=T Li1EC4_r05_charge_1_spin_1_liquid_t_traj_1_frame_0004=T E=T -1378.036347990026=T solvent_indices_0based="_JSON [1, 2, 3, 4, 5, 6, 7, 8, 9, 10]" complex_indices_0based="_JSON [0, 11, 12, 13, 14, 15, 16, 17, 18, 19, 20, 21, 22, 23, 24, 25, 26, 27, 28, 29, 30, 31, 32, 33, 34, 35, 36, 37, 38, 39, 40]" complex_indices_1based="_JSON [1, 12, 13, 14, 15, 16, 17, 18, 19, 20, 21, 22, 23, 24, 25, 26, 27, 28, 29, 30, 31, 32, 33, 34, 35, 36, 37, 38, 39, 40, 41]" pbc="F F F"
Li      -0.19369643      -0.97570250       0.75297570  F        0        1
C        2.80197285       1.06003215      -0.76929831  T        1        2
C        3.77859400       2.01688064      -0.10461467  T        1        2